LAMMPS data file via write_data, version 30 Jun 2020, timestep = 5351

4374 atoms
5 atom types

0.0000000000000000e+00 3.7229172029471727e+01 xlo xhi
0.0000000000000000e+00 3.2241408739383573e+01 ylo yhi
-1.0000000000000000e+01 7.0000000000000000e+01 zlo zhi
1.8614586014735863e+01 0.0000000000000000e+00 0.0000000000000000e+00 xy xz yz

Masses

1 26.982
2 12.01
3 12.01
4 95.96
5 32.06

Atoms # full

1 1 1 0.0 1.4318912300000002 0.8267027900000002 1.1690000000000005 0 0 0
3 3 1 0.0 0.0 0.0 5.845537180000004 0 0 0
4 4 1 0.0 1.4318884357116886 0.8267011154198685 8.18363576712877 0 0 0
474 474 1 0.0 11.455101211957937 9.541469537809569e-05 12.860022031218197 0 0 0
7 7 1 0.0 1.431957599678014 0.826741127915765 15.198050474858338 0 0 0
2699 2699 5 0.0 24.93290791436779 14.396757365504815 26.951299557889882 0 0 0
10 10 1 0.0 2.8637824600000004 3.306811150000001 1.1690000000000005 0 0 0
12 12 1 0.0 1.4318912299999993 2.4801083600000005 5.845537180000004 0 0 0
13 13 1 0.0 2.863792961656544 3.306795521371883 8.183628318945864 0 0 0
15 15 1 0.0 1.4319246371174397 2.480101962194085 12.860197185005848 0 0 0
16 16 1 0.0 2.8639287935656257 3.3068279768849385 15.198229988039667 0 0 0
2695 2695 5 0.0 21.830751860050263 14.397089960215322 26.950854083330327 0 0 0
19 19 1 0.0 4.295673689999997 5.7869195200000005 1.1690000000000005 0 0 0
22 22 1 0.0 4.2956990197829406 5.7868878165866 8.18361567756542 0 0 0
25 25 1 0.0 4.2957839775772415 5.7867815781889655 15.19822432255221 0 0 0
28 28 1 0.0 5.727564930000001 8.267027880000002 1.1690000000000005 0 0 0
30 30 1 0.0 4.295673700000001 7.440325090000002 5.845537180000004 0 0 0
31 31 1 0.0 5.7275982487492385 8.266993379509561 8.183605332311771 0 0 0
2694 2694 5 0.0 23.382117901932396 11.710045720783441 26.950852462857213 0 0 0
34 34 1 0.0 5.727609903787501 8.266856180797282 15.197962530391095 0 0 0
2691 2691 5 0.0 18.727885483441874 14.397189819699998 26.950903947582816 0 0 0
37 37 1 0.0 7.159456160000001 10.747136250000002 1.1690000000000005 0 0 0
39 39 1 0.0 5.727564930000001 9.920433460000002 5.845537180000004 0 0 0
40 40 1 0.0 7.159493481722624 10.747111658205236 8.183603779683462 0 0 0
2690 2690 5 0.0 20.27940254830659 11.710055377944757 26.950138235982408 0 0 0
43 43 1 0.0 7.159542167094106 10.7471018963578 15.197842816127384 0 0 0
357 357 1 0.0 8.591289435248695 0.0001180737210076243 12.860075023864606 0 0 0
46 46 1 0.0 8.591347390000001 13.227244610000003 1.1690000000000005 0 0 0
48 48 1 0.0 7.159456159999993 12.400541820000004 5.845537180000004 0 0 0
49 49 1 0.0 8.591386084566661 13.227228541004745 8.183610059393054 0 0 0
33 33 1 0.0 4.295746991366229 7.44021576930339 12.860074706262218 0 0 0
52 52 1 0.0 8.59151529897224 13.227281022814086 15.1980607781624 0 0 0
42 42 1 0.0 5.727633262831849 9.920360873535909 12.86002170885952 0 0 0
55 55 1 0.0 10.023238620000003 15.707352980000003 1.1690000000000005 0 0 0
58 58 1 0.0 10.023273127524783 15.707337376196818 8.183616408658178 0 0 0
61 61 1 0.0 10.023381819310547 15.707282390675594 15.19825623624694 0 0 0
118 118 1 0.0 4.295673690000001 0.8267027900000002 1.1690000000000005 0 0 0
119 119 1 0.0 2.8637824600000004 1.6534055800000005 3.507268589999999 0 0 0
120 120 1 0.0 2.8637824600000004 0.0 5.845537180000004 0 0 0
121 121 1 0.0 4.295665474771522 0.8267195974455896 8.183628347891279 0 0 0
122 122 1 0.0 2.863793247047005 1.653411706416835 10.521910919089066 0 0 0
123 123 1 0.0 2.8637937399730022 3.204512932515357e-05 12.860197281577058 0 0 0
124 124 1 0.0 4.295761661951042 0.8268209974533653 15.198230323823783 0 0 0
125 125 1 0.0 2.8640391284624185 1.653553570182718 17.52901768505728 0 0 0
60 60 1 0.0 8.591454236155794 14.880626467527165 12.860128124567712 0 0 0
127 127 1 0.0 5.72756493 3.306811150000001 1.1690000000000005 0 0 0
128 128 1 0.0 4.295673700000001 4.133513940000001 3.507268589999999 0 0 0
129 129 1 0.0 4.2956737 2.4801083600000005 5.845537180000004 0 0 0
130 130 1 0.0 5.727571217452937 3.3068147063863527 8.183639361799308 0 0 0
131 131 1 0.0 4.295708866365544 4.1334873778653005 10.521917733826797 0 0 0
132 132 1 0.0 4.295724257280638 2.480137422365669 12.860318155727711 0 0 0
133 133 1 0.0 5.727613698531384 3.3068390510024313 15.198615792754012 0 0 0
134 134 1 0.0 4.295838787691173 4.13351988994258 17.529700488961986 0 0 0
135 135 1 0.0 4.295755814715934 2.4801549385027504 19.863773990253417 0 0 0
136 136 1 0.0 7.159456160000001 5.7869195200000005 1.1690000000000005 0 0 0
137 137 1 0.0 5.72756493 6.613622310000002 3.507268589999999 0 0 0
138 138 1 0.0 5.72756493 4.960216730000001 5.845537180000004 0 0 0
139 139 1 0.0 7.159470118717172 5.786903068441901 8.183634980205817 0 0 0
140 140 1 0.0 5.7276096666357015 6.613563012234395 10.52188936596718 0 0 0
141 141 1 0.0 5.727612874465425 4.9601589769857855 12.86035186545206 0 0 0
142 142 1 0.0 7.1594371035835085 5.786777108032734 15.198481705097393 0 0 0
143 143 1 0.0 5.727496828805705 6.61340245442409 17.52932066943844 0 0 0
144 144 1 0.0 5.727313263294761 4.960487613933925 19.864354892155575 0 0 0
145 145 1 0.0 8.591347390000001 8.267027880000002 1.1690000000000005 0 0 0
146 146 1 0.0 7.159456160000001 9.093730670000001 3.507268589999999 0 0 0
147 147 1 0.0 7.159456160000001 7.440325090000002 5.845537180000004 0 0 0
148 148 1 0.0 8.591365389280185 8.267006758694603 8.183621859511874 0 0 0
149 149 1 0.0 7.159507211613037 9.093678338440764 10.521854133753735 0 0 0
150 150 1 0.0 7.15949817455497 7.4402260308210675 12.860229235267266 0 0 0
151 151 1 0.0 8.591369339506764 8.26691709576711 15.198086352512608 0 0 0
152 152 1 0.0 7.159370557485628 9.093617623911117 17.52849806537098 0 0 0
153 153 1 0.0 7.159003474402319 7.440633326662642 19.862666009235124 0 0 0
154 154 1 0.0 10.023238620000003 10.747136250000002 1.1690000000000005 0 0 0
155 155 1 0.0 8.591347389999996 11.573839040000001 3.507268589999999 0 0 0
156 156 1 0.0 8.591347390000001 9.920433460000002 5.845537180000004 0 0 0
157 157 1 0.0 10.023258315829274 10.747123931189542 8.183619909057246 0 0 0
158 158 1 0.0 8.591407409253161 11.573814556451968 10.521859554544065 0 0 0
159 159 1 0.0 8.591414273500586 9.920390602457571 12.860151218920723 0 0 0
160 160 1 0.0 10.023344275597422 10.747190687455547 15.198110728367844 0 0 0
161 161 1 0.0 8.591476739272341 11.573972541197978 17.52864573679796 0 0 0
162 162 1 0.0 8.590961791274648 9.920571088266241 19.861662812407683 0 0 0
163 163 1 0.0 11.455129850000002 13.227244610000003 1.1690000000000005 0 0 0
164 164 1 0.0 10.023238619999987 14.053947400000004 3.507268589999999 0 0 0
165 165 1 0.0 10.023238619999995 12.400541820000004 5.845537180000004 0 0 0
166 166 1 0.0 11.45514550479265 13.227237440167604 8.183627914673131 0 0 0
167 167 1 0.0 10.023295857639392 14.053929339217989 10.521892314535364 0 0 0
168 168 1 0.0 10.023320884532012 12.400548215691508 12.860236711115608 0 0 0
169 169 1 0.0 11.455210501299032 13.227306571052466 15.198461329626234 0 0 0
170 170 1 0.0 10.023471945185367 14.054002283543825 17.52948425605883 0 0 0
171 171 1 0.0 10.023117581537095 12.400479719673747 19.863076235922705 0 0 0
172 172 1 0.0 12.887021090000001 15.707352980000003 1.1690000000000005 0 0 0
174 174 1 0.0 11.45512986 14.880650190000004 5.845537180000004 0 0 0
175 175 1 0.0 12.887030351957565 15.707344620141534 8.183628235175838 0 0 0
177 177 1 0.0 11.455181400167728 14.880623977565511 12.860319233308395 0 0 0
178 178 1 0.0 12.887006409281469 15.707263852967559 15.198471669727795 0 0 0
180 180 1 0.0 11.455255010360538 14.88054014480684 19.86434236749059 0 0 0
235 235 1 0.0 7.159456160000002 0.8267027900000002 1.1690000000000005 0 0 0
236 236 1 0.0 5.72756493 1.6534055800000005 3.507268589999999 0 0 0
237 237 1 0.0 5.727564930000001 0.0 5.845537180000004 0 0 0
238 238 1 0.0 7.1594414385529985 0.826740470544157 8.183615728255873 0 0 0
239 239 1 0.0 5.727559618295111 1.6534491576724395 10.521917811165725 0 0 0
240 240 1 0.0 5.727542344552978 9.845675030299268e-05 12.860155545040627 0 0 0
241 241 1 0.0 7.159392015236177 0.8268671912461115 15.198225062875736 0 0 0
242 242 1 0.0 5.727653163012292 1.6535450952709287 17.529701646567712 0 0 0
24 24 1 0.0 2.8638564518276675 4.960147769466873 12.860155265943508 0 0 0
244 244 1 0.0 8.591347390000001 3.306811150000001 1.1690000000000005 0 0 0
245 245 1 0.0 7.159456160000001 4.133513940000001 3.507268589999999 0 0 0
246 246 1 0.0 7.159456160000001 2.4801083600000005 5.845537180000004 0 0 0
247 247 1 0.0 8.591340195563829 3.3068313473009208 8.183634999707394 0 0 0
248 248 1 0.0 7.1594596685131835 4.133515839688851 10.521952781909928 0 0 0
249 249 1 0.0 7.159430258814676 2.4801785467711848 12.86035204536308 0 0 0
250 250 1 0.0 8.591214702283667 3.306865489529092 15.198482098661824 0 0 0
251 251 1 0.0 7.159310221414536 4.133429075469321 17.53011243960417 0 0 0
252 252 1 0.0 7.15956541352718 2.479753897813795 19.864357598882005 0 0 0
253 253 1 0.0 10.023238620000003 5.7869195200000005 1.1690000000000005 0 0 0
254 254 1 0.0 8.591347390000001 6.613622310000002 3.507268589999999 0 0 0
255 255 1 0.0 8.591347390000001 4.960216730000001 5.845537180000004 0 0 0
256 256 1 0.0 10.023235397757063 5.786917573384413 8.183627632504244 0 0 0
257 257 1 0.0 8.591356870394598 6.6135899978910455 10.521912172512526 0 0 0
258 258 1 0.0 8.591314491437124 4.9601975699337935 12.860341024202025 0 0 0
259 259 1 0.0 10.023146293085127 5.786866006203482 15.198208932088022 0 0 0
260 260 1 0.0 8.59118248851303 6.613438881179996 17.52922151916875 0 0 0
261 261 1 0.0 8.591267327532153 4.960169892586613 19.863710175823588 0 0 0
262 262 1 0.0 11.455129850000002 8.267027880000002 1.1690000000000005 0 0 0
263 263 1 0.0 10.02323862 9.093730670000001 3.507268589999999 0 0 0
264 264 1 0.0 10.02323862 7.440325090000002 5.845537180000004 0 0 0
265 265 1 0.0 11.455128573746647 8.267020177990105 8.183614131820288 0 0 0
266 266 1 0.0 10.023257607220472 9.09370794886068 10.521873112283409 0 0 0
267 267 1 0.0 10.023230924518757 7.440283860025935 12.860190912251547 0 0 0
268 268 1 0.0 11.455123800114933 8.267034457049695 15.197955975285456 0 0 0
269 269 1 0.0 10.023291120640415 9.093797594384522 17.528631833932025 0 0 0
270 270 1 0.0 10.023239117735256 7.440479345892689 19.86195825382218 0 0 0
271 271 1 0.0 12.887021090000001 10.747136250000002 1.1690000000000005 0 0 0
272 272 1 0.0 11.45512986 11.573839040000001 3.507268589999999 0 0 0
273 273 1 0.0 11.45512986 9.920433460000002 5.845537180000004 0 0 0
274 274 1 0.0 12.887016034419684 10.747134050017786 8.183614284234274 0 0 0
275 275 1 0.0 11.455146680516405 11.5738376527296 10.521892555501616 0 0 0
276 276 1 0.0 11.455138953520407 9.9204445676377 12.860167640589196 0 0 0
277 277 1 0.0 12.88699159383749 10.747246019656528 15.198119255778519 0 0 0
278 278 1 0.0 11.455284951174027 11.574090441455459 17.529324958928434 0 0 0
279 279 1 0.0 11.455394393820335 9.920536913741321 19.862177794444897 0 0 0
280 280 1 0.0 14.318912320000003 13.227244610000003 1.1690000000000005 0 0 0
281 281 1 0.0 12.887021090000001 14.053947400000004 3.507268589999999 0 0 0
282 282 1 0.0 12.887021090000001 12.400541820000004 5.845537180000004 0 0 0
283 283 1 0.0 14.31890078600826 13.227245755623906 8.18361652392123 0 0 0
284 284 1 0.0 12.88702151206098 14.053943634077276 10.52191502685108 0 0 0
285 285 1 0.0 12.88699975050097 12.400574425449875 12.860264622853265 0 0 0
286 286 1 0.0 14.318785544110515 13.227316205345222 15.198289269655163 0 0 0
287 287 1 0.0 12.887034268238612 14.053972850392785 17.529967896289016 0 0 0
288 288 1 0.0 12.887514453193203 12.400427681184997 19.863876185283505 0 0 0
289 289 1 0.0 15.750803550000004 15.707352980000003 1.1690000000000005 0 0 0
291 291 1 0.0 14.318912320000003 14.880650190000004 5.845537180000004 0 0 0
292 292 1 0.0 15.750792727663026 15.70735688099959 8.183608526318189 0 0 0
294 294 1 0.0 14.318859391875892 14.880647820273628 12.860255192238895 0 0 0
295 295 1 0.0 15.750676068022205 15.707325810045074 15.198078583278168 0 0 0
297 297 1 0.0 14.319408075269832 14.880330341731263 19.86394218834394 0 0 0
352 352 1 0.0 10.023238620000003 0.8267027900000002 1.1690000000000005 0 0 0
353 353 1 0.0 8.591347390000001 1.6534055800000005 3.507268589999999 0 0 0
354 354 1 0.0 8.591347390000001 0.0 5.845537180000004 0 0 0
355 355 1 0.0 10.023225471392536 0.8267487964367052 8.183605399222657 0 0 0
356 356 1 0.0 8.59131850891608 1.6534738137897427 10.521889485367591 0 0 0
51 51 1 0.0 7.159548609281326 12.400523136272447 12.860053795012153 0 0 0
358 358 1 0.0 10.023112345562005 0.8268276390067201 15.197963150136236 0 0 0
359 359 1 0.0 8.591123036184996 1.653456290900056 17.52932254696338 0 0 0
2662 2662 4 0.0 21.83050857325924 12.60558579431485 28.58922312561883 0 0 0
361 361 1 0.0 11.455129849999997 3.306811150000001 1.1690000000000005 0 0 0
362 362 1 0.0 10.023238620000003 4.133513940000001 3.507268589999999 0 0 0
363 363 1 0.0 10.023238620000003 2.4801083600000005 5.845537180000004 0 0 0
364 364 1 0.0 11.455120627986178 3.3068371826066487 8.18362189590394 0 0 0
365 365 1 0.0 10.02321548098013 4.133538118736997 10.52191221266936 0 0 0
366 366 1 0.0 10.023173911606241 2.480194099293112 12.860229444891011 0 0 0
367 367 1 0.0 11.455044822397596 3.3068853150941955 15.198086611528637 0 0 0
368 368 1 0.0 10.022997421498308 4.133462142709992 17.52922221707766 0 0 0
369 369 1 0.0 10.023278851206296 2.4795615503514004 19.862669195734952 0 0 0
370 370 1 0.0 12.887021090000001 5.7869195200000005 1.1690000000000005 0 0 0
371 371 1 0.0 11.45512986 6.613622310000002 3.507268589999999 0 0 0
372 372 1 0.0 11.45512986 4.960216730000001 5.845537180000004 0 0 0
373 373 1 0.0 12.88701384264283 5.786922139779997 8.183614151375316 0 0 0
374 374 1 0.0 11.455116425929392 6.6136144395449366 10.52186744765368 0 0 0
375 375 1 0.0 11.455090370237775 4.960230469959549 12.8601909392765 0 0 0
376 376 1 0.0 12.887023697726299 5.786910814923248 15.197955841586456 0 0 0
377 377 1 0.0 11.455109584481828 6.613610460661381 17.528552364736754 0 0 0
378 378 1 0.0 11.455263393355912 4.960139515867756 19.861958675875414 0 0 0
379 379 1 0.0 14.318912320000003 8.267027880000002 1.1690000000000005 0 0 0
380 380 1 0.0 12.887021090000001 9.093730670000001 3.507268589999999 0 0 0
381 381 1 0.0 12.887021090000001 7.440325090000002 5.845537180000004 0 0 0
382 382 1 0.0 14.318901493195536 8.267021554149057 8.183602896620329 0 0 0
383 383 1 0.0 12.887006138232444 9.093726055319346 10.521843039885006 0 0 0
384 384 1 0.0 12.886999381422463 7.440312476848085 12.860095658561153 0 0 0
385 385 1 0.0 14.318893664018702 8.267017181774026 15.197843238545335 0 0 0
386 386 1 0.0 12.887110111148658 9.093910891357703 17.528513351379218 0 0 0
387 387 1 0.0 12.887438972615136 7.440566695680471 19.86141180414743 0 0 0
388 388 1 0.0 15.750803550000004 10.747136250000002 1.1690000000000005 0 0 0
389 389 1 0.0 14.318912320000003 11.573839040000001 3.507268589999999 0 0 0
390 390 1 0.0 14.318912320000003 9.920433460000002 5.845537180000004 0 0 0
391 391 1 0.0 15.750786283295383 10.747133718434663 8.18359750499895 0 0 0
392 392 1 0.0 14.318881110239865 11.573847002191924 10.521853276683725 0 0 0
393 393 1 0.0 14.318860968616189 9.920445965693773 12.860085892854308 0 0 0
394 394 1 0.0 15.750687304707798 10.747184496596278 15.197828545604509 0 0 0
395 395 1 0.0 14.318856059738442 11.574055516247242 17.529024827655437 0 0 0
396 396 1 0.0 14.319566684510914 9.920608186770115 19.861944469518207 0 0 0
397 397 1 0.0 17.182694780000002 13.227244610000003 1.1690000000000005 0 0 0
398 398 1 0.0 15.750803550000004 14.053947400000004 3.507268589999999 0 0 0
399 399 1 0.0 15.750803550000004 12.400541820000004 5.845537180000004 0 0 0
400 400 1 0.0 17.18267800869738 13.227249297967099 8.183591358293356 0 0 0
401 401 1 0.0 15.750766290685089 14.053958307129726 10.521841808602993 0 0 0
402 402 1 0.0 15.750719898360426 12.400573491266186 12.860091978994493 0 0 0
403 403 1 0.0 17.18257592935292 13.227308496642689 15.19777563931141 0 0 0
404 404 1 0.0 15.7506215891933 14.053941287667211 17.5289998364602 0 0 0
405 405 1 0.0 15.751447619963121 12.400348204413765 19.862443882054276 0 0 0
406 406 1 0.0 18.614586010000004 15.707352980000003 1.1690000000000005 0 0 0
408 408 1 0.0 17.18269478 14.880650190000004 5.845537180000004 0 0 0
409 409 1 0.0 18.614576622858184 15.707364441372032 8.183588503618395 0 0 0
411 411 1 0.0 17.182635698373073 14.880678998203635 12.860035552811109 0 0 0
412 412 1 0.0 18.614567569395327 15.707377545179757 15.197718521982942 0 0 0
414 414 1 0.0 17.183080866539512 14.880079823311176 19.861912707061933 0 0 0
469 469 1 0.0 12.887021090000001 0.8267027900000002 1.1690000000000005 0 0 0
470 470 1 0.0 11.455129860000001 1.6534055800000005 3.507268589999999 0 0 0
471 471 1 0.0 11.455129860000001 0.0 5.845537180000004 0 0 0
472 472 1 0.0 12.887018515201051 0.8267473083906715 8.183603884716142 0 0 0
473 473 1 0.0 11.455110144925861 1.6534758054583898 10.521854281308215 0 0 0
2671 2671 4 0.0 26.48376592142506 15.292145126919628 28.59061087719668 0 0 0
475 475 1 0.0 12.88703427323623 0.8267944974692515 15.197843297038727 0 0 0
476 476 1 0.0 11.454988662191914 1.6533880366510538 17.528499165675203 0 0 0
2667 2667 4 0.0 23.381699395078584 15.292158796215672 28.590264861101176 0 0 0
478 478 1 0.0 14.318912320000003 3.306811150000001 1.1690000000000005 0 0 0
479 479 1 0.0 12.887021090000001 4.133513940000001 3.507268589999999 0 0 0
480 480 1 0.0 12.887021090000003 2.4801083600000005 5.845537180000004 0 0 0
481 481 1 0.0 14.31891156140467 3.3068342505281763 8.183619985202107 0 0 0
482 482 1 0.0 12.887010986765157 4.133541564701378 10.521873180368672 0 0 0
483 483 1 0.0 12.887017466334571 2.480187543514537 12.860151427959355 0 0 0
484 484 1 0.0 14.319012238367048 3.306875199749587 15.198110859201783 0 0 0
485 485 1 0.0 12.887104837109026 4.133525560211367 17.5286317478862 0 0 0
486 486 1 0.0 12.886946325267893 2.47970534105225 19.86166381012086 0 0 0
487 487 1 0.0 15.750803550000004 5.7869195200000005 1.1690000000000005 0 0 0
488 488 1 0.0 14.318912320000003 6.613622310000002 3.507268589999999 0 0 0
489 489 1 0.0 14.318912320000003 4.960216730000001 5.845537180000004 0 0 0
490 490 1 0.0 15.750799183406517 5.7869161240351525 8.183614339829177 0 0 0
491 491 1 0.0 14.318900933430506 6.61361150601772 10.521843068554915 0 0 0
492 492 1 0.0 14.318926544387022 4.9602188599079975 12.860167670559605 0 0 0
493 493 1 0.0 15.750883816630589 5.78683892555534 15.198119006626648 0 0 0
494 494 1 0.0 14.319112453624463 6.613609431471624 17.528512576737718 0 0 0
495 495 1 0.0 14.319133096570635 4.960394083027317 19.862176052248515 0 0 0
496 496 1 0.0 17.182694780000002 8.267027880000002 1.1690000000000005 0 0 0
497 497 1 0.0 15.750803550000004 9.093730670000001 3.507268589999999 0 0 0
498 498 1 0.0 15.750803550000004 7.440325090000002 5.845537180000004 0 0 0
499 499 1 0.0 17.182684020544148 8.267014078822422 8.183597542374052 0 0 0
500 500 1 0.0 15.750776156484909 9.093714755799246 10.521809887810967 0 0 0
501 501 1 0.0 15.750788761201553 7.440274254934598 12.86008589759415 0 0 0
502 502 1 0.0 17.182678380763708 8.266903195275692 15.197828426864994 0 0 0
503 503 1 0.0 15.75085997649758 9.093763806056138 17.52829346204066 0 0 0
504 504 1 0.0 15.751280922901099 7.440805529597525 19.86194231088579 0 0 0
505 505 1 0.0 18.614586010000004 10.747136250000002 1.1690000000000005 0 0 0
506 506 1 0.0 17.182694780000002 11.573839040000001 3.507268589999999 0 0 0
507 507 1 0.0 17.182694780000002 9.920433460000002 5.845537180000004 0 0 0
508 508 1 0.0 18.614575686079156 10.747130211759156 8.183583764916442 0 0 0
509 509 1 0.0 17.18266109556574 11.57384118232745 10.521786328277315 0 0 0
510 510 1 0.0 17.182647692884668 9.920406210071665 12.859985632752647 0 0 0
511 511 1 0.0 18.614566597214814 10.747125114169112 15.197589837297059 0 0 0
512 512 1 0.0 17.182623526507815 11.57391895914061 17.52813180576769 0 0 0
513 513 1 0.0 17.183170289063114 9.92070940990269 19.861254062988237 0 0 0
514 514 1 0.0 20.046477240000005 13.227244610000003 1.1690000000000005 0 0 0
515 515 1 0.0 18.614586009999993 14.053947400000004 3.507268589999999 0 0 0
516 516 1 0.0 18.614586009999993 12.400541820000004 5.845537180000004 0 0 0
517 517 1 0.0 20.046474251175834 13.227249779660175 8.183582623904073 0 0 0
518 518 1 0.0 18.614569132706986 14.05396573784837 10.521775073305022 0 0 0
519 519 1 0.0 18.614562877692137 12.400566102066943 12.859943861785602 0 0 0
520 520 1 0.0 20.046557892711235 13.22730894436932 15.197688093102244 0 0 0
521 521 1 0.0 18.61459704858418 14.053924495032106 17.52813626920407 0 0 0
522 522 1 0.0 18.614801153494156 12.400297602491504 19.861145066425998 0 0 0
523 523 1 0.0 21.478368480000007 15.707352980000003 1.1690000000000005 0 0 0
525 525 1 0.0 20.046477250000002 14.880650190000004 5.845537180000004 0 0 0
526 526 1 0.0 21.478365158744815 15.707360618119282 8.183595027066591 0 0 0
528 528 1 0.0 20.04649955740503 14.880684379772934 12.85999223750704 0 0 0
529 529 1 0.0 21.478476916303755 15.70733791663749 15.197956860088027 0 0 0
531 531 1 0.0 20.0463995695579 14.880013227558196 19.861731900519928 0 0 0
586 586 1 0.0 15.750803550000004 0.8267027900000002 1.1690000000000005 0 0 0
587 587 1 0.0 14.318912320000004 1.6534055800000005 3.507268589999999 0 0 0
588 588 1 0.0 14.318912320000003 0.0 5.845537180000004 0 0 0
589 589 1 0.0 15.750809005569819 0.8267442589588482 8.183610218098512 0 0 0
590 590 1 0.0 14.318921208340107 1.6534696487017626 10.52185980942031 0 0 0
591 591 1 0.0 14.318942449463778 8.933229808879424e-05 12.860054343292745 0 0 0
592 592 1 0.0 15.750919163399791 0.8268299550993006 15.198061771501273 0 0 0
593 593 1 0.0 14.319092261386205 1.653450855677836 17.52864640336182 0 0 0
2666 2666 4 0.0 24.93274449437068 12.605669914149368 28.590263588721427 0 0 0
595 595 1 0.0 17.182694780000002 3.306811150000001 1.1690000000000005 0 0 0
596 596 1 0.0 15.750803550000004 4.133513940000001 3.507268589999999 0 0 0
597 597 1 0.0 15.750803550000006 2.4801083600000005 5.845537180000004 0 0 0
598 598 1 0.0 17.182696423129347 3.3068281990367505 8.183628045701852 0 0 0
599 599 1 0.0 15.750810847064201 4.133529031256784 10.521892733514782 0 0 0
600 600 1 0.0 15.75085031227612 2.4801762222790753 12.86023715647918 0 0 0
601 601 1 0.0 17.18278889641987 3.3068496862058443 15.198462004186904 0 0 0
602 602 1 0.0 15.751098506722498 4.133522130806682 17.529324496190522 0 0 0
603 603 1 0.0 15.750688161835514 2.4800343392723256 19.863076832531377 0 0 0
604 604 1 0.0 18.614586010000004 5.7869195200000005 1.1690000000000005 0 0 0
605 605 1 0.0 17.182694780000002 6.613622310000002 3.507268589999999 0 0 0
606 606 1 0.0 17.182694780000002 4.960216730000001 5.845537180000004 0 0 0
607 607 1 0.0 18.614581264555394 5.786908861405697 8.183616633183703 0 0 0
608 608 1 0.0 17.18268615819995 6.613591136272808 10.521853415327534 0 0 0
609 609 1 0.0 17.182712442583743 4.960181735085414 12.860264896365262 0 0 0
610 610 1 0.0 18.614584749183607 5.7867736578654 15.198289559498974 0 0 0
611 611 1 0.0 17.182853787228204 6.613465436150742 17.529023679148146 0 0 0
612 612 1 0.0 17.182841561149452 4.960701130664435 19.863874149248915 0 0 0
613 613 1 0.0 20.046477240000005 8.267027880000002 1.1690000000000005 0 0 0
614 614 1 0.0 18.614586010000004 9.093730670000001 3.507268589999999 0 0 0
615 615 1 0.0 18.614586010000004 7.440325090000002 5.845537180000004 0 0 0
616 616 1 0.0 20.04647294347065 8.267010918678194 8.183591449129722 0 0 0
617 617 1 0.0 18.614571110425196 9.093700277381044 10.521786437878884 0 0 0
618 618 1 0.0 18.614571703801825 7.440236675784585 12.860092223153323 0 0 0
619 619 1 0.0 20.046473258881164 8.266893010434059 15.197776038054197 0 0 0
620 620 1 0.0 18.61461922462842 9.09362978704081 17.52813139710024 0 0 0
621 621 1 0.0 18.6147392758845 7.440980839024346 19.8624413236373 0 0 0
622 622 1 0.0 21.478368480000004 10.747136250000002 1.1690000000000005 0 0 0
623 623 1 0.0 20.046477250000002 11.573839040000001 3.507268589999999 0 0 0
624 624 1 0.0 20.046477250000002 9.920433460000002 5.845537180000004 0 0 0
625 625 1 0.0 21.478371483152486 10.74713098289252 8.1835826800326 0 0 0
626 626 1 0.0 20.04647902738625 11.573839971149782 10.521762900097219 0 0 0
627 627 1 0.0 20.046486794308887 9.92040116810532 12.859944097774317 0 0 0
628 628 1 0.0 21.478464632043526 10.747173934186707 15.197688607511349 0 0 0
629 629 1 0.0 20.046593273600333 11.5739064633264 17.527995956161547 0 0 0
630 630 1 0.0 20.046372187021127 9.920743967498579 19.861144589857737 0 0 0
631 631 1 0.0 22.910259710000002 13.227244610000003 1.1690000000000005 0 0 0
632 632 1 0.0 21.478368480000004 14.053947400000004 3.507268589999999 0 0 0
633 633 1 0.0 21.478368480000004 12.400541820000004 5.845537180000004 0 0 0
634 634 1 0.0 22.910262547025294 13.227246219895601 8.183596819103641 0 0 0
635 635 1 0.0 21.478382445355095 14.053962048912208 10.521800793996384 0 0 0
636 636 1 0.0 21.47842364791298 12.400573571669106 12.860006694350488 0 0 0
637 637 1 0.0 22.910385099280436 13.227316870238667 15.198112428724649 0 0 0
638 638 1 0.0 21.478578443197748 14.053920885678602 17.52875929005855 0 0 0
639 639 1 0.0 21.477979766911893 12.400318676687291 19.86215004406145 0 0 0
640 640 1 0.0 24.34215094000001 15.707352980000003 1.1690000000000005 0 0 0
642 642 1 0.0 22.910259709999995 14.880650190000004 5.845537180000004 0 0 0
643 643 1 0.0 24.342137550321205 15.707347829632056 8.183610713504152 0 0 0
645 645 1 0.0 22.910300739003013 14.880657851715617 12.860163972695474 0 0 0
646 646 1 0.0 24.342174520457178 15.70727209954018 15.198345482699157 0 0 0
648 648 1 0.0 22.90982933615082 14.880191583201507 19.863645868373958 0 0 0
703 703 1 0.0 18.614586010000004 0.8267027900000002 1.1690000000000005 0 0 0
704 704 1 0.0 17.182694780000002 1.6534055800000005 3.507268589999999 0 0 0
705 705 1 0.0 17.182694780000002 0.0 5.845537180000004 0 0 0
706 706 1 0.0 18.61458970855459 0.8267404396167247 8.183616574368568 0 0 0
707 707 1 0.0 17.182707780261847 1.6534640671805907 10.52189271049247 0 0 0
708 708 1 0.0 17.182727689657092 0.00010436505376673253 12.86012895793737 0 0 0
709 709 1 0.0 18.614596561080383 0.8268620956399169 15.198257817629429 0 0 0
710 710 1 0.0 17.182859140556012 1.6535799444024932 17.529486187599943 0 0 0
2663 2663 4 0.0 20.27930759157353 15.292167566165793 28.59000234599077 0 0 0
712 712 1 0.0 20.046477240000005 3.306811150000001 1.1690000000000005 0 0 0
713 713 1 0.0 18.614586010000004 4.133513940000001 3.507268589999999 0 0 0
714 714 1 0.0 18.614586010000004 2.4801083600000005 5.845537180000004 0 0 0
715 715 1 0.0 20.046474592253787 3.306823304118145 8.1836283714116 0 0 0
716 716 1 0.0 18.614582985978757 4.133516054014507 10.521915348620453 0 0 0
717 717 1 0.0 18.614589114485817 2.480165963553073 12.860319979548049 0 0 0
718 718 1 0.0 20.046392785515792 3.3068426947704905 15.198472934983261 0 0 0
719 719 1 0.0 18.614614801856916 4.133511925829768 17.529968720432553 0 0 0
720 720 1 0.0 18.614553208582976 2.480270982423232 19.8643455567202 0 0 0
721 721 1 0.0 21.478368480000004 5.7869195200000005 1.1690000000000005 0 0 0
722 722 1 0.0 20.046477250000002 6.613622310000002 3.507268589999999 0 0 0
723 723 1 0.0 20.046477250000002 4.960216730000001 5.845537180000004 0 0 0
724 724 1 0.0 21.478366398030172 5.786908138635433 8.18360864366068 0 0 0
725 725 1 0.0 20.04646808052102 6.613584458037407 10.521842088720668 0 0 0
726 726 1 0.0 20.04644875169177 4.960171895077625 12.860255761048535 0 0 0
727 727 1 0.0 21.478281259020918 5.786822438877252 15.198079421962301 0 0 0
728 728 1 0.0 20.046381102960346 6.613467571205861 17.528999909331926 0 0 0
729 729 1 0.0 20.04644805822323 4.960805461313911 19.86394265383392 0 0 0
730 730 1 0.0 22.91025971 8.267027880000002 1.1690000000000005 0 0 0
731 731 1 0.0 21.478368480000004 9.093730670000001 3.507268589999999 0 0 0
732 732 1 0.0 21.478368480000004 7.440325090000002 5.845537180000004 0 0 0
733 733 1 0.0 22.910264894182106 8.267013966336608 8.183588603205266 0 0 0
734 734 1 0.0 21.478375937714066 9.093706770611485 10.521775322702545 0 0 0
735 735 1 0.0 21.478363904970177 7.440259417112936 12.860036079628962 0 0 0
736 736 1 0.0 22.910271825176924 8.266999654309304 15.197719451405707 0 0 0
737 737 1 0.0 21.478354292994155 9.093752160118173 17.52813704731419 0 0 0
738 738 1 0.0 21.47806751257316 7.44094511600136 19.861912529823922 0 0 0
739 739 1 0.0 24.342150940000007 10.747136250000002 1.1690000000000005 0 0 0
740 740 1 0.0 22.91025971 11.573839040000001 3.507268589999999 0 0 0
741 741 1 0.0 22.91025971 9.920433460000002 5.845537180000004 0 0 0
742 742 1 0.0 24.342155851628522 10.747129509886859 8.183595088486996 0 0 0
743 743 1 0.0 22.910279400867964 11.57384370486557 10.521800934931878 0 0 0
744 744 1 0.0 22.910300500777318 9.920435613664319 12.859992756366161 0 0 0
745 745 1 0.0 24.342192195696654 10.747237738146742 15.197957930702962 0 0 0
746 746 1 0.0 22.91034187898991 11.574034472497635 17.528760493005038 0 0 0
747 747 1 0.0 22.909669213984333 9.920686040166903 19.861733846925723 0 0 0
748 748 1 0.0 25.77404217000001 13.227244610000003 1.1690000000000005 0 0 0
749 749 1 0.0 24.34215094000001 14.053947400000004 3.507268589999999 0 0 0
750 750 1 0.0 24.342150940000014 12.400541820000004 5.845537180000004 0 0 0
751 751 1 0.0 25.77403097285522 13.227235586368769 8.183610719867389 0 0 0
752 752 1 0.0 24.342148729345745 14.053946099922898 10.521864652330322 0 0 0
753 753 1 0.0 24.342178120060012 12.40057341095529 12.860164263691725 0 0 0
754 754 1 0.0 25.77398399985899 13.227305300725106 15.198346062344228 0 0 0
755 755 1 0.0 24.342152286296567 14.053948005439034 17.52974978561985 0 0 0
756 756 1 0.0 24.341538558139835 12.400399691821193 19.86364832185023 0 0 0
757 757 1 0.0 27.205933400000006 15.707352980000003 1.1690000000000005 0 0 0
759 759 1 0.0 25.77404217 14.880650190000004 5.845537180000004 0 0 0
760 760 1 0.0 27.20590303261426 15.70733549587643 8.183604343767229 0 0 0
762 762 1 0.0 25.774001684232736 14.880626783273698 12.860250124644182 0 0 0