LAMMPS data file via write_data, version 30 Jun 2020, timestep = 2650

3492 atoms
2 atom types

0.0000000000000000e+00 3.7229172029471727e+01 xlo xhi
0.0000000000000000e+00 3.2241408739383573e+01 ylo yhi
-1.0000000000000000e+01 7.0000000000000000e+01 zlo zhi
1.8614586014735863e+01 0.0000000000000000e+00 0.0000000000000000e+00 xy xz yz

Masses

1 26.982
2 12.01

Atoms # full

1 1 1 0.0 1.4318912300000002 0.8267027900000002 1.1690000000000005 0 0 0
3 3 1 0.0 0.0 0.0 5.845537180000004 0 0 0
4 4 1 0.0 1.4318969500370202 0.8267060602351473 8.183565937455022 0 0 0
2476 2476 1 0.0 18.614426979176624 10.747043739625502 26.96046953482113 0 0 0
7 7 1 0.0 1.4319301981892876 0.8267250037332546 15.197503787178562 0 0 0
2477 2477 1 0.0 17.18289383194375 11.573789154093548 29.295390725528833 0 0 0
10 10 1 0.0 2.8637824600000004 3.306811150000001 1.1690000000000005 0 0 0
12 12 1 0.0 1.4318912299999993 2.4801083600000005 5.845537180000004 0 0 0
13 13 1 0.0 2.8638219439606547 3.306819095047226 8.18357431371598 0 0 0
15 15 1 0.0 1.4319267158138358 2.4801466242458248 12.859879158601771 0 0 0
16 16 1 0.0 2.8639769347789823 3.306909294895323 15.197695850398159 0 0 0
2468 2468 1 0.0 15.750993708274162 9.093841048608654 29.29646100130443 0 0 0
19 19 1 0.0 4.295673689999997 5.7869195200000005 1.1690000000000005 0 0 0
22 22 1 0.0 4.295749219234676 5.786904320285014 8.183587546073412 0 0 0
25 25 1 0.0 4.29599512494033 5.786928576869073 15.198000592148716 0 0 0
28 28 1 0.0 5.727564930000001 8.267027880000002 1.1690000000000005 0 0 0
30 30 1 0.0 4.295673700000001 7.440325090000002 5.845537180000004 0 0 0
31 31 1 0.0 5.727647664692582 8.266981777093221 8.183594212905643 0 0 0
33 33 1 0.0 4.295897696725239 7.4402430645247515 12.859978432983624 0 0 0
34 34 1 0.0 5.7278750197339265 8.266859922931024 15.198154844013008 0 0 0
2467 2467 1 0.0 17.182153397467168 8.26672461652111 26.961977017481765 0 0 0
37 37 1 0.0 7.159456160000001 10.747136250000002 1.1690000000000005 0 0 0
39 39 1 0.0 5.727564930000001 9.920433460000002 5.845537180000004 0 0 0
40 40 1 0.0 7.159511018474642 10.74707814989908 8.183588641796515 0 0 0
42 42 1 0.0 5.727756694262954 9.920283730566478 12.85998103101278 0 0 0
43 43 1 0.0 7.159625761636371 10.746856578815068 15.198025877331872 0 0 0
2485 2485 1 0.0 20.04651963045283 13.227625823766244 26.960886987952577 0 0 0
46 46 1 0.0 8.591347390000001 13.227244610000003 1.1690000000000005 0 0 0
48 48 1 0.0 7.159456159999992 12.400541820000004 5.845537180000004 0 0 0
49 49 1 0.0 8.591363359359049 13.227203760397268 8.183575568474488 0 0 0
51 51 1 0.0 7.159537914768077 12.400403160205117 12.85993662826154 0 0 0
52 52 1 0.0 8.591369253695554 13.227014708786172 15.197724634975192 0 0 0
2459 2459 1 0.0 14.31897877832203 6.6137710299125105 29.297985861316562 0 0 0
55 55 1 0.0 10.023238620000003 15.707352980000003 1.1690000000000005 0 0 0
58 58 1 0.0 10.023238318495256 15.70734375200707 8.183566258576128 0 0 0
61 61 1 0.0 10.02323338434965 15.707291217958257 15.197511163283885 0 0 0
118 118 1 0.0 4.295673690000001 0.8267027900000002 1.1690000000000005 0 0 0
119 119 1 0.0 2.8637824600000004 1.6534055800000005 3.507268589999999 0 0 0
120 120 1 0.0 2.8637824600000004 0.0 5.845537180000004 0 0 0
121 121 1 0.0 4.2957002135929265 0.8267330355374127 8.18357423960645 0 0 0
122 122 1 0.0 2.8638355449382322 1.6534362474130708 10.521746538997686 0 0 0
123 123 1 0.0 2.863833205075191 1.1388017996069282e-05 12.859879083626069 0 0 0
124 124 1 0.0 4.295855624631922 0.826822027449102 15.197695299432592 0 0 0
125 125 1 0.0 2.8639660995442418 1.6535112774437808 17.528052962835744 0 0 0
60 60 1 0.0 8.591336719121076 14.880591667851023 12.859882953667828 0 0 0
127 127 1 0.0 5.72756493 3.306811150000001 1.1690000000000005 0 0 0
128 128 1 0.0 4.295673700000001 4.133513940000001 3.507268589999999 0 0 0
129 129 1 0.0 4.2956737 2.4801083600000005 5.845537180000004 0 0 0
130 130 1 0.0 5.727627456319233 3.306847369575279 8.183622523162356 0 0 0
131 131 1 0.0 4.295797994429165 4.1335394651905375 10.521830356229739 0 0 0
132 132 1 0.0 4.2958394606739265 2.480204224522276 12.860060241778953 0 0 0
133 133 1 0.0 5.727872775242747 3.3069892371260714 15.198326601057069 0 0 0
134 134 1 0.0 4.295958355746459 4.13368582749496 17.528812132432027 0 0 0
135 135 1 0.0 4.295678393090841 2.480109578084513 19.86194018002977 0 0 0
136 136 1 0.0 7.159456160000001 5.7869195200000005 1.1690000000000005 0 0 0
137 137 1 0.0 5.72756493 6.613622310000002 3.507268589999999 0 0 0
138 138 1 0.0 5.72756493 4.960216730000001 5.845537180000004 0 0 0
139 139 1 0.0 7.159525872189068 5.786915968459204 8.183667105196754 0 0 0
140 140 1 0.0 5.727720022422326 6.6135821634759395 10.521907665290207 0 0 0
141 141 1 0.0 5.727803596197427 4.960256069343585 12.860347855554828 0 0 0
142 142 1 0.0 7.159752104544925 5.7869290328024015 15.198910292123337 0 0 0
143 143 1 0.0 5.727822137864238 6.613644502800799 17.52951512946515 0 0 0
144 144 1 0.0 5.727187473791775 4.96043904643411 19.863486346531364 0 0 0
145 145 1 0.0 8.591347390000001 8.267027880000002 1.1690000000000005 0 0 0
146 146 1 0.0 7.159456160000001 9.093730670000001 3.507268589999999 0 0 0
147 147 1 0.0 7.159456160000001 7.440325090000002 5.845537180000004 0 0 0
148 148 1 0.0 8.591389253190766 8.266973216637918 8.18366955782993 0 0 0
149 149 1 0.0 7.159574979035192 9.093621134972881 10.521911919744284 0 0 0
150 150 1 0.0 7.159662685114144 7.440215891838093 12.86049353480977 0 0 0
151 151 1 0.0 8.591503753118074 8.26678744949766 15.198942461538923 0 0 0
152 152 1 0.0 7.159580438052526 9.093516935560256 17.529553910968275 0 0 0
153 153 1 0.0 7.1588844586230485 7.440655828953914 19.864271150596828 0 0 0
154 154 1 0.0 10.023238620000003 10.747136250000002 1.1690000000000005 0 0 0
155 155 1 0.0 8.591347389999996 11.573839040000001 3.507268589999999 0 0 0
156 156 1 0.0 8.591347390000001 9.920433460000002 5.845537180000004 0 0 0
157 157 1 0.0 10.02324162867257 10.747063222085055 8.183627775628118 0 0 0
158 158 1 0.0 8.591394153163684 11.573716259078427 10.52183946905523 0 0 0
159 159 1 0.0 8.591444289476517 9.92021203958382 12.860371726493419 0 0 0
160 160 1 0.0 10.023247927687418 10.746779843214208 15.198395325628098 0 0 0
161 161 1 0.0 8.591348047790575 11.57350704941918 17.52889483753671 0 0 0
162 162 1 0.0 8.590934982346269 9.920668227799487 19.86361485604254 0 0 0
163 163 1 0.0 11.455129850000002 13.227244610000003 1.1690000000000005 0 0 0
164 164 1 0.0 10.023238619999985 14.053947400000004 3.507268589999999 0 0 0
165 165 1 0.0 10.023238619999995 12.400541820000004 5.845537180000004 0 0 0
166 166 1 0.0 11.455116588393373 13.22720185002648 8.183577753442869 0 0 0
167 167 1 0.0 10.023239870747076 14.053878952355458 10.521752644441591 0 0 0
168 168 1 0.0 10.023243210513586 12.40034128672759 12.860087395668454 0 0 0
169 169 1 0.0 11.455112064155388 13.227006371782245 15.197741238986087 0 0 0
170 170 1 0.0 10.02323245013949 14.053716492793244 17.528108186329607 0 0 0
171 171 1 0.0 10.023203994730336 12.400558563920653 19.86208599618038 0 0 0
172 172 1 0.0 12.887021090000001 15.707352980000003 1.1690000000000005 0 0 0
174 174 1 0.0 11.45512986 14.880650190000004 5.845537180000004 0 0 0
175 175 1 0.0 12.88702820501946 15.707363003900644 8.183562768642076 0 0 0
177 177 1 0.0 11.455139318986358 14.88058568186906 12.85988603940837 0 0 0
178 178 1 0.0 12.887119681514294 15.707365541865727 15.197545381910405 0 0 0
180 180 1 0.0 11.455365611624583 14.880513592057378 19.861005474452824 0 0 0
235 235 1 0.0 7.159456160000002 0.8267027900000002 1.1690000000000005 0 0 0
236 236 1 0.0 5.72756493 1.6534055800000005 3.507268589999999 0 0 0
237 237 1 0.0 5.727564930000001 0.0 5.845537180000004 0 0 0
238 238 1 0.0 7.159480624770252 0.8267758410368785 8.183587322345005 0 0 0
239 239 1 0.0 5.727648958155193 1.6535006140730735 10.521830057149447 0 0 0
240 240 1 0.0 5.727645161428516 0.00012743072299639595 12.859930182815098 0 0 0
241 241 1 0.0 7.159624144709739 0.8269766813784492 15.197998488871729 0 0 0
242 242 1 0.0 5.727855910338337 1.653565961797922 17.52881060670457 0 0 0
24 24 1 0.0 2.8639331890947224 4.960222811811925 12.859931015965145 0 0 0
244 244 1 0.0 8.591347390000001 3.306811150000001 1.1690000000000005 0 0 0
245 245 1 0.0 7.159456160000001 4.133513940000001 3.507268589999999 0 0 0
246 246 1 0.0 7.159456160000001 2.4801083600000005 5.845537180000004 0 0 0
247 247 1 0.0 8.59137903824649 3.3068734946051923 8.18366695405846 0 0 0
248 248 1 0.0 7.159570890661151 4.1335804389206565 10.522018473567641 0 0 0
249 249 1 0.0 7.159609167573474 2.48029577305088 12.86034709953432 0 0 0
250 250 1 0.0 8.591503029837227 3.3070633745142914 15.19890874740397 0 0 0
251 251 1 0.0 7.1597177109888275 4.133665190391172 17.53016275876259 0 0 0
252 252 1 0.0 7.159461160569265 2.4796681444818085 19.863483595773364 0 0 0
253 253 1 0.0 10.023238620000003 5.7869195200000005 1.1690000000000005 0 0 0
254 254 1 0.0 8.591347390000001 6.613622310000002 3.507268589999999 0 0 0
255 255 1 0.0 8.591347390000001 4.960216730000001 5.845537180000004 0 0 0
256 256 1 0.0 10.023242418882411 5.786921864922421 8.183707292582746 0 0 0
257 257 1 0.0 8.591425852279531 6.613584511319049 10.522113904102962 0 0 0
258 258 1 0.0 8.591468088098306 4.960286870831615 12.860732389452888 0 0 0
259 259 1 0.0 10.02325464056697 5.786929428877708 15.199369408916557 0 0 0
260 260 1 0.0 8.591476374703909 6.613564828662013 17.530847109607528 0 0 0
261 261 1 0.0 8.59115694871314 4.960105408592995 19.86524399746362 0 0 0
262 262 1 0.0 11.455129850000002 8.267027880000002 1.1690000000000005 0 0 0
263 263 1 0.0 10.02323862 9.093730670000001 3.507268589999999 0 0 0
264 264 1 0.0 10.02323862 7.440325090000002 5.845537180000004 0 0 0
265 265 1 0.0 11.455094795824728 8.266972761238081 8.183673561707003 0 0 0
266 266 1 0.0 10.02324511177956 9.093602895852696 10.522034109229082 0 0 0
267 267 1 0.0 10.02324984327344 7.4402022324011075 12.860753612049471 0 0 0
268 268 1 0.0 11.454998880753202 8.26678361587351 15.198984248311675 0 0 0
269 269 1 0.0 10.023245528156314 9.093444272771396 17.5302749267466 0 0 0
270 270 1 0.0 10.023208608783724 7.440528230446806 19.865340730050693 0 0 0
271 271 1 0.0 12.887021090000001 10.747136250000002 1.1690000000000005 0 0 0
272 272 1 0.0 11.45512986 11.573839040000001 3.507268589999999 0 0 0
273 273 1 0.0 11.45512986 9.920433460000002 5.845537180000004 0 0 0
274 274 1 0.0 12.886969727095053 10.747075785111752 8.183594840005519 0 0 0
275 275 1 0.0 11.455090836834739 11.57371324102162 10.521847846091141 0 0 0
276 276 1 0.0 11.455048792182716 9.920208235773606 12.860392473812524 0 0 0
277 277 1 0.0 12.886862433881475 10.746844399195364 15.198084471404965 0 0 0
278 278 1 0.0 11.45513001203662 11.573499693756457 17.528938327312922 0 0 0
279 279 1 0.0 11.455477636593306 9.920665868065305 19.86369133790102 0 0 0
280 280 1 0.0 14.318912320000003 13.227244610000003 1.1690000000000005 0 0 0
281 281 1 0.0 12.887021090000001 14.053947400000004 3.507268589999999 0 0 0
282 282 1 0.0 12.887021090000001 12.400541820000004 5.845537180000004 0 0 0
283 283 1 0.0 14.318881328848883 13.227235601077755 8.183539096964644 0 0 0
284 284 1 0.0 12.887002408022742 14.053913923643933 10.521715943135025 0 0 0
285 285 1 0.0 12.88694479880288 12.400393351765135 12.859960526986281 0 0 0
286 286 1 0.0 14.31887016492768 13.227154216388143 15.197446772874006 0 0 0
287 287 1 0.0 12.887137122338046 14.053778802792499 17.527990872363574 0 0 0
288 288 1 0.0 12.887640946908153 12.40049066854232 19.861709116518348 0 0 0
289 289 1 0.0 15.750803550000004 15.707352980000003 1.1690000000000005 0 0 0
291 291 1 0.0 14.318912320000003 14.880650190000004 5.845537180000004 0 0 0
292 292 1 0.0 15.750811987708248 15.707407769893425 8.183554582047002 0 0 0
294 294 1 0.0 14.31893385388151 14.880691596211175 12.85983116642575 0 0 0
295 295 1 0.0 15.750921023639226 15.70753921339622 15.197623957569842 0 0 0
297 297 1 0.0 14.319461371739024 14.88024851887499 19.861113401676086 0 0 0
352 352 1 0.0 10.023238620000003 0.8267027900000002 1.1690000000000005 0 0 0
353 353 1 0.0 8.591347390000001 1.6534055800000005 3.507268589999999 0 0 0
354 354 1 0.0 8.591347390000001 0.0 5.845537180000004 0 0 0
355 355 1 0.0 10.02324001299322 0.8267974924455707 8.18359389391744 0 0 0
356 356 1 0.0 8.59138994804796 1.6535601199175507 10.521906951395415 0 0 0
357 357 1 0.0 8.591388044413923 0.00023489521659148075 12.859976813550343 0 0 0
358 358 1 0.0 10.023247868043697 0.8270552388545546 15.198151530324267 0 0 0
359 359 1 0.0 8.591494718623679 1.653617212858885 17.529510948002436 0 0 0
2458 2458 1 0.0 15.750025296957539 5.786853049177181 26.964127552155077 0 0 0
361 361 1 0.0 11.455129849999997 3.306811150000001 1.1690000000000005 0 0 0
362 362 1 0.0 10.023238620000003 4.133513940000001 3.507268589999999 0 0 0
363 363 1 0.0 10.023238620000003 2.4801083600000005 5.845537180000004 0 0 0
364 364 1 0.0 11.455103393458435 3.306874883747448 8.183669313322412 0 0 0
365 365 1 0.0 10.023244896206464 4.133601176031162 10.522113489962198 0 0 0
366 366 1 0.0 10.023247006831822 2.480342156841055 12.860491995748198 0 0 0
367 367 1 0.0 11.45499947096978 3.307067331196093 15.1989397098015 0 0 0
368 368 1 0.0 10.023252837250492 4.13365491655746 17.530844467769768 0 0 0
369 369 1 0.0 10.023239266730121 2.4794463564422102 19.864264864963715 0 0 0
370 370 1 0.0 12.887021090000001 5.7869195200000005 1.1690000000000005 0 0 0
371 371 1 0.0 11.45512986 6.613622310000002 3.507268589999999 0 0 0
372 372 1 0.0 11.45512986 4.960216730000001 5.845537180000004 0 0 0
373 373 1 0.0 12.886955771259263 5.786916901599904 8.18367347110189 0 0 0
374 374 1 0.0 11.455064157363571 6.613584636986946 10.52212486598712 0 0 0
375 375 1 0.0 11.455028756589591 4.96028851161359 12.860752829707177 0 0 0
376 376 1 0.0 12.88674371618043 5.786929086510738 15.19898304132137 0 0 0
377 377 1 0.0 11.455022029886244 6.613560631406852 17.530917715397514 0 0 0
378 378 1 0.0 11.45529084052701 4.960087757997789 19.865337203465163 0 0 0
379 379 1 0.0 14.318912320000003 8.267027880000002 1.1690000000000005 0 0 0
380 380 1 0.0 12.887021090000001 9.093730670000001 3.507268589999999 0 0 0
381 381 1 0.0 12.887021090000001 7.440325090000002 5.845537180000004 0 0 0
382 382 1 0.0 14.318830674326037 8.26698080333516 8.183602775040939 0 0 0
383 383 1 0.0 12.886909809737755 9.09361824466221 10.521931274550731 0 0 0
384 384 1 0.0 12.886827572024927 7.4402137230763 12.860534735386082 0 0 0
385 385 1 0.0 14.31860637844367 8.266851644903179 15.198244468111135 0 0 0
386 386 1 0.0 12.886905220291274 9.093505379604874 17.52966834384143 0 0 0
387 387 1 0.0 12.88755891367039 7.440635528588833 19.86444100638316 0 0 0
388 388 1 0.0 15.750803550000004 10.747136250000002 1.1690000000000005 0 0 0
389 389 1 0.0 14.318912320000003 11.573839040000001 3.507268589999999 0 0 0
390 390 1 0.0 14.318912320000003 9.920433460000002 5.845537180000004 0 0 0
391 391 1 0.0 15.750742235011774 10.747105004745244 8.183518238696475 0 0 0
392 392 1 0.0 14.318821282974195 11.573766606349086 10.521699722613267 0 0 0
393 393 1 0.0 14.318723204006453 9.920275571693223 12.860025464085467 0 0 0
394 394 1 0.0 15.750613230229854 10.746995616374093 15.197358538978012 0 0 0
395 395 1 0.0 14.318911073526834 11.573630919326545 17.528166435962305 0 0 0
396 396 1 0.0 14.319721592388287 9.920709125030184 19.86233132489172 0 0 0
397 397 1 0.0 17.182694780000002 13.227244610000003 1.1690000000000005 0 0 0
398 398 1 0.0 15.750803550000004 14.053947400000004 3.507268589999999 0 0 0
399 399 1 0.0 15.750803550000004 12.400541820000004 5.845537180000004 0 0 0
400 400 1 0.0 17.182672908938066 13.227275880306921 8.183492924939568 0 0 0
401 401 1 0.0 15.750781146770464 14.053995306017711 10.521630380651658 0 0 0
402 402 1 0.0 15.75071220507196 12.400514748103012 12.859664705036394 0 0 0
403 403 1 0.0 17.18266480371168 13.227332023880741 15.197092673361947 0 0 0
404 404 1 0.0 15.750941882134136 14.053926199754398 17.527714960821193 0 0 0
405 405 1 0.0 15.751544891022354 12.400336537929544 19.860822001782847 0 0 0
406 406 1 0.0 18.614586010000004 15.707352980000003 1.1690000000000005 0 0 0
408 408 1 0.0 17.18269478 14.880650190000004 5.845537180000004 0 0 0
409 409 1 0.0 18.614588584625444 15.707439384200143 8.183548743117825 0 0 0
411 411 1 0.0 17.18270995577256 14.88081833073899 12.859764914450796 0 0 0
412 412 1 0.0 18.614621207537354 15.707662542903899 15.197678566341146 0 0 0
414 414 1 0.0 17.18308369404224 14.879935835358427 19.86124246242628 0 0 0
469 469 1 0.0 12.887021090000001 0.8267027900000002 1.1690000000000005 0 0 0
470 470 1 0.0 11.455129860000001 1.6534055800000005 3.507268589999999 0 0 0
471 471 1 0.0 11.455129860000001 0.0 5.845537180000004 0 0 0
472 472 1 0.0 12.886998285135405 0.826779269133881 8.183588365228378 0 0 0
473 473 1 0.0 11.45509437593913 1.6535632863392091 10.521911034800311 0 0 0
474 474 1 0.0 11.455096124772272 0.00024061848398994806 12.85997927899949 0 0 0
475 475 1 0.0 12.88686388208207 0.826989110023725 15.19802274307851 0 0 0
476 476 1 0.0 11.455006537370933 1.6536199666341107 17.529548232151114 0 0 0
2486 2486 1 0.0 18.614673255780176 14.05375240832825 29.295687242501202 0 0 0
478 478 1 0.0 14.318912320000003 3.306811150000001 1.1690000000000005 0 0 0
479 479 1 0.0 12.887021090000001 4.133513940000001 3.507268589999999 0 0 0
480 480 1 0.0 12.887021090000003 2.4801083600000005 5.845537180000004 0 0 0
481 481 1 0.0 14.318850662243452 3.3068503360951493 8.183627574972299 0 0 0
482 482 1 0.0 12.886913646586445 4.13358372155813 10.522033524829112 0 0 0
483 483 1 0.0 12.886877835507132 2.4803031150323256 12.860370054012535 0 0 0
484 484 1 0.0 14.318608510459294 3.306997648885155 15.198392746775497 0 0 0
485 485 1 0.0 12.886776157152772 4.1336635669858905 17.530270783481097 0 0 0
486 486 1 0.0 12.887017094641747 2.479632960431642 19.863607278007503 0 0 0
487 487 1 0.0 15.750803550000004 5.7869195200000005 1.1690000000000005 0 0 0
488 488 1 0.0 14.318912320000003 6.613622310000002 3.507268589999999 0 0 0
489 489 1 0.0 14.318912320000003 4.960216730000001 5.845537180000004 0 0 0
490 490 1 0.0 15.750725590887019 5.786905378870754 8.183594788970947 0 0 0
491 491 1 0.0 14.318759288618105 6.613582428155084 10.52193110439367 0 0 0
492 492 1 0.0 14.318676793541373 4.960259564329587 12.860391557475449 0 0 0
493 493 1 0.0 15.750471674816847 5.786928598431854 15.198083440491075 0 0 0
494 494 1 0.0 14.318658926720655 6.613635395847 17.529666846568553 0 0 0
495 495 1 0.0 14.319286389993323 4.9604009756694305 19.86368651073996 0 0 0
496 496 1 0.0 17.182694780000002 8.267027880000002 1.1690000000000005 0 0 0
497 497 1 0.0 15.750803550000004 9.093730670000001 3.507268589999999 0 0 0
498 498 1 0.0 15.750803550000004 7.440325090000002 5.845537180000004 0 0 0
499 499 1 0.0 17.182637149793766 8.266990413875924 8.183518279712455 0 0 0
500 500 1 0.0 15.750670661752572 9.093653979555834 10.521692040911155 0 0 0
501 501 1 0.0 15.750572314813137 7.440240583540641 12.8600253316162 0 0 0
502 502 1 0.0 17.182478031529563 8.266933661871633 15.197358721431069 0 0 0
503 503 1 0.0 15.750662499527277 9.093649645447995 17.528247925627852 0 0 0
504 504 1 0.0 15.75144582192309 7.440888678641825 19.86233004541965 0 0 0
505 505 1 0.0 18.614586010000004 10.747136250000002 1.1690000000000005 0 0 0
506 506 1 0.0 17.182694780000002 11.573839040000001 3.507268589999999 0 0 0
507 507 1 0.0 17.182694780000002 9.920433460000002 5.845537180000004 0 0 0
508 508 1 0.0 18.614567817593567 10.747125645813094 8.183464126170747 0 0 0
509 509 1 0.0 17.182630488883202 11.573830354047455 10.521522765325493 0 0 0
510 510 1 0.0 17.182561070084695 9.920356196025702 12.85958665647328 0 0 0
511 511 1 0.0 18.614529371550503 10.747103315578356 15.196843333231307 0 0 0
512 512 1 0.0 17.182693015896007 11.573791081637046 17.527235652596058 0 0 0
513 513 1 0.0 17.18326697594417 9.920765098640969 19.86068400155997 0 0 0
514 514 1 0.0 20.046477240000005 13.227244610000003 1.1690000000000005 0 0 0
515 515 1 0.0 18.614586009999993 14.053947400000004 3.507268589999999 0 0 0
516 516 1 0.0 18.614586009999993 12.400541820000004 5.845537180000004 0 0 0
517 517 1 0.0 20.04648350388114 13.227287876644416 8.183479163730325 0 0 0
518 518 1 0.0 18.61457945510524 14.05405283181657 10.521569778946528 0 0 0
519 519 1 0.0 18.61455893912501 12.400600743015147 12.859455131684257 0 0 0
520 520 1 0.0 20.046486098318127 13.227385257952937 15.19698666816753 0 0 0
521 521 1 0.0 18.614627462133033 14.054032419943898 17.527517432159385 0 0 0
522 522 1 0.0 18.61480733435383 12.400230658685715 19.860186208853552 0 0 0
523 523 1 0.0 21.478368480000007 15.707352980000003 1.1690000000000005 0 0 0
525 525 1 0.0 20.046477250000002 14.880650190000004 5.845537180000004 0 0 0
526 526 1 0.0 21.478363060586695 15.707430513990042 8.183550386660315 0 0 0
528 528 1 0.0 20.046473333665453 14.88085614339992 12.859745042934563 0 0 0
529 529 1 0.0 21.478291296550413 15.707627894129963 15.197663321491135 0 0 0
531 531 1 0.0 20.04636853311864 14.879843455589596 19.86128095101137 0 0 0
586 586 1 0.0 15.750803550000004 0.8267027900000002 1.1690000000000005 0 0 0
587 587 1 0.0 14.318912320000004 1.6534055800000005 3.507268589999999 0 0 0
588 588 1 0.0 14.318912320000003 0.0 5.845537180000004 0 0 0
589 589 1 0.0 15.75077630324354 0.8267369279845942 8.183575436159263 0 0 0
590 590 1 0.0 14.31882957255184 1.65350737024841 10.521838804435784 0 0 0
591 591 1 0.0 14.318833488310089 0.00013962550338895153 12.859935509867526 0 0 0
592 592 1 0.0 15.750615954483761 0.8268360592231189 15.197722911184304 0 0 0
593 593 1 0.0 14.318625248523526 1.6535717540975166 17.528890118077367 0 0 0
2450 2450 1 0.0 12.886954039649911 4.133541309302928 29.298643910281882 0 0 0
595 595 1 0.0 17.182694780000002 3.306811150000001 1.1690000000000005 0 0 0
596 596 1 0.0 15.750803550000004 4.133513940000001 3.507268589999999 0 0 0
597 597 1 0.0 15.750803550000006 2.4801083600000005 5.845537180000004 0 0 0
598 598 1 0.0 17.18265126347347 3.3068210752056157 8.183577696443514 0 0 0
599 599 1 0.0 15.750675300958584 4.13354318977401 10.521847480931555 0 0 0
600 600 1 0.0 15.750632551843776 2.4802125431512856 12.860086353471544 0 0 0
601 601 1 0.0 17.18248014171825 3.3069148814550537 15.19774006611776 0 0 0
602 602 1 0.0 15.750509867056666 4.133683925310842 17.5289351335988 0 0 0
603 603 1 0.0 15.750799424068976 2.4800692630462406 19.862080515254096 0 0 0
604 604 1 0.0 18.614586010000004 5.7869195200000005 1.1690000000000005 0 0 0
605 605 1 0.0 17.182694780000002 6.613622310000002 3.507268589999999 0 0 0
606 606 1 0.0 17.182694780000002 4.960216730000001 5.845537180000004 0 0 0
607 607 1 0.0 18.614562862957317 5.7868972563777925 8.183539188241284 0 0 0
608 608 1 0.0 17.182586740326148 6.613579827493372 10.521699771504732 0 0 0
609 609 1 0.0 17.182528437160276 4.960225137963456 12.859960241695049 0 0 0
610 610 1 0.0 18.614487232448095 5.786928545030888 15.197447155990371 0 0 0
611 611 1 0.0 17.182514050092358 6.613725808884036 17.528165910128862 0 0 0
612 612 1 0.0 17.182959109938984 4.960778500203403 19.86170640148975 0 0 0
613 613 1 0.0 20.046477240000005 8.267027880000002 1.1690000000000005 0 0 0
614 614 1 0.0 18.614586010000004 9.093730670000001 3.507268589999999 0 0 0
615 615 1 0.0 18.614586010000004 7.440325090000002 5.845537180000004 0 0 0
616 616 1 0.0 20.046493535688136 8.266993278488613 8.183493108906752 0 0 0
617 617 1 0.0 18.614546550438423 9.093679247813212 10.52152298570524 0 0 0
618 618 1 0.0 18.614517273244104 7.440259662286406 12.859665206834478 0 0 0
619 619 1 0.0 20.046538537805183 8.266958280021612 15.197094276609263 0 0 0
620 620 1 0.0 18.614543725483436 9.093753461865072 17.52723663995678 0 0 0
621 621 1 0.0 18.61477759605764 7.441070441205423 19.860822886529196 0 0 0
622 622 1 0.0 21.478368480000004 10.747136250000002 1.1690000000000005 0 0 0
623 623 1 0.0 20.046477250000002 11.573839040000001 3.507268589999999 0 0 0
624 624 1 0.0 20.046477250000002 9.920433460000002 5.845537180000004 0 0 0
625 625 1 0.0 21.478409223218414 10.74711985426452 8.183479309499326 0 0 0
626 626 1 0.0 20.046495524216173 11.573849356149905 10.521470020664133 0 0 0
627 627 1 0.0 20.046515114045086 9.920380268300939 12.85945576761669 0 0 0
628 628 1 0.0 21.478495288020977 10.747073026361322 15.196988089666817 0 0 0
629 629 1 0.0 20.046478318727438 11.57383951236821 17.526956569884252 0 0 0
630 630 1 0.0 20.04631712275293 9.920782749098256 19.860188389333892 0 0 0
631 631 1 0.0 22.910259710000002 13.227244610000003 1.1690000000000005 0 0 0
632 632 1 0.0 21.478368480000004 14.053947400000004 3.507268589999999 0 0 0
633 633 1 0.0 21.478368480000004 12.400541820000004 5.845537180000004 0 0 0
634 634 1 0.0 22.910288759364114 13.227261213641956 8.183509741309088 0 0 0
635 635 1 0.0 21.478383635690392 14.054036686887299 10.521586798131747 0 0 0
636 636 1 0.0 21.478429464835443 12.400576595842521 12.859513995226006 0 0 0
637 637 1 0.0 22.910299848815697 13.227267116323535 15.197221939404137 0 0 0
638 638 1 0.0 21.478277550009082 14.054002463638646 17.52757306801619 0 0 0
639 639 1 0.0 21.47787804004212 12.400260178927535 19.86036534516365 0 0 0
640 640 1 0.0 24.34215094000001 15.707352980000003 1.1690000000000005 0 0 0
642 642 1 0.0 22.910259709999995 14.880650190000004 5.845537180000004 0 0 0
643 643 1 0.0 24.342142262917772 15.707388829843131 8.183558055228552 0 0 0
645 645 1 0.0 22.910240254605796 14.880772146287264 12.859789129441971 0 0 0
646 646 1 0.0 24.342028286839554 15.70746559608011 15.197590892909783 0 0 0
648 648 1 0.0 22.909748300948003 14.880049276945272 19.86119545091464 0 0 0
703 703 1 0.0 18.614586010000004 0.8267027900000002 1.1690000000000005 0 0 0
704 704 1 0.0 17.182694780000002 1.6534055800000005 3.507268589999999 0 0 0
705 705 1 0.0 17.182694780000002 0.0 5.845537180000004 0 0 0
706 706 1 0.0 18.614577962557693 0.8267070545474315 8.183566243604503 0 0 0
707 707 1 0.0 17.18263639117064 1.6534407535278908 10.521752400141967 0 0 0
708 708 1 0.0 17.182639149209745 1.9506663580357783e-05 12.859882686953007 0 0 0
709 709 1 0.0 18.61453037959823 0.8267285780171395 15.197510863101307 0 0 0
710 710 1 0.0 17.18249221863464 1.6535150776286769 17.528106053705717 0 0 0
2449 2449 1 0.0 14.31824885113908 3.307224260176191 26.965056757290753 0 0 0
712 712 1 0.0 20.046477240000005 3.306811150000001 1.1690000000000005 0 0 0
713 713 1 0.0 18.614586010000004 4.133513940000001 3.507268589999999 0 0 0
714 714 1 0.0 18.614586010000004 2.4801083600000005 5.845537180000004 0 0 0
715 715 1 0.0 20.04648957753958 3.306812367365591 8.183562826283879 0 0 0
716 716 1 0.0 18.61454794626635 4.133514609596501 10.521715997830512 0 0 0
717 717 1 0.0 18.61453526527723 2.480148748041811 12.859885847555091 0 0 0
718 718 1 0.0 20.046537894596323 3.3068903320570397 15.197545633121486 0 0 0
719 719 1 0.0 18.614498521612887 4.133698685954046 17.527990271163944 0 0 0
720 720 1 0.0 18.61458522091081 2.480379548384394 19.861003672397224 0 0 0
721 721 1 0.0 21.478368480000004 5.7869195200000005 1.1690000000000005 0 0 0
722 722 1 0.0 20.046477250000002 6.613622310000002 3.507268589999999 0 0 0
723 723 1 0.0 20.046477250000002 4.960216730000001 5.845537180000004 0 0 0
724 724 1 0.0 21.478420237877828 5.786899533363414 8.183554792352197 0 0 0
725 725 1 0.0 20.04650779446275 6.61357906143936 10.521630850870842 0 0 0
726 726 1 0.0 20.046524257333154 4.960214912497995 12.859831733109278 0 0 0
727 727 1 0.0 21.478588966978556 5.78692853044818 15.197625765201295 0 0 0
728 728 1 0.0 20.046528551805412 6.613753007041224 17.5277170486017 0 0 0
729 729 1 0.0 20.04640354193141 4.960891884085168 19.861114387969447 0 0 0
730 730 1 0.0 22.91025971 8.267027880000002 1.1690000000000005 0 0 0
731 731 1 0.0 21.478368480000004 9.093730670000001 3.507268589999999 0 0 0
732 732 1 0.0 21.478368480000004 7.440325090000002 5.845537180000004 0 0 0
733 733 1 0.0 22.910335915362324 8.266986911486145 8.183549047545107 0 0 0
734 734 1 0.0 21.478456767268018 9.093672155006107 10.52157042147656 0 0 0
735 735 1 0.0 21.478522062989043 7.440254298252119 12.859766268837621 0 0 0
736 736 1 0.0 22.91054586486139 8.266903706154816 15.197681588722887 0 0 0
737 737 1 0.0 21.478463332190668 9.09372417827489 17.527521035379777 0 0 0
738 738 1 0.0 21.47794391608914 7.441019209625289 19.861247052735326 0 0 0
739 739 1 0.0 24.342150940000007 10.747136250000002 1.1690000000000005 0 0 0
740 740 1 0.0 22.91025971 11.573839040000001 3.507268589999999 0 0 0
741 741 1 0.0 22.91025971 9.920433460000002 5.845537180000004 0 0 0
742 742 1 0.0 24.342215471096413 10.747092640660071 8.183550648426454 0 0 0
743 743 1 0.0 22.910344876276568 11.573807135287764 10.521587220228984 0 0 0
744 744 1 0.0 22.91043649907315 9.920326807918919 12.859746530323626 0 0 0
745 745 1 0.0 24.34235090594754 10.746931450240586 15.197666162016539 0 0 0
746 746 1 0.0 22.910262436634554 11.573732327972806 17.52757568468961 0 0 0
747 747 1 0.0 22.90950634303576 9.920744168530433 19.861286826882623 0 0 0
748 748 1 0.0 25.77404217000001 13.227244610000003 1.1690000000000005 0 0 0
749 749 1 0.0 24.34215094000001 14.053947400000004 3.507268589999999 0 0 0
750 750 1 0.0 24.342150940000014 12.400541820000004 5.845537180000004 0 0 0
751 751 1 0.0 25.77406897344156 13.227218947501795 8.183558171436871 0 0 0
752 752 1 0.0 24.342174790616596 14.053960865708735 10.521666613205056 0 0 0
753 753 1 0.0 24.342247216841955 12.400463336910509 12.859789982143997 0 0 0
754 754 1 0.0 25.77407884861022 13.22708114278366 15.19759231822043 0 0 0
755 755 1 0.0 24.34200650138493 14.053863429751607 17.527832252222023 0 0 0
756 756 1 0.0 24.341374473213083 12.400401114794468 19.861199159094653 0 0 0
757 757 1 0.0 27.205933400000006 15.707352980000003 1.1690000000000005 0 0 0
759 759 1 0.0 25.77404217 14.880650190000004 5.845537180000004 0 0 0
760 760 1 0.0 27.20592904869319 15.707350357933175 8.183565061283765 0 0 0
762 762 1 0.0 25.77402409482965 14.880639307743467 12.859858317390788 0 0 0
763 763 1 0.0 27.205871520189604 15.707316704795653 15.197522924223552 0 0 0