LAMMPS data file via write_data, version 30 Jun 2020, timestep = 21581

3942 atoms
3 atom types

0.0000000000000000e+00 3.7229172029471727e+01 xlo xhi
0.0000000000000000e+00 3.2241408739383573e+01 ylo yhi
-1.0000000000000000e+01 7.0000000000000000e+01 zlo zhi
1.8614586014735863e+01 0.0000000000000000e+00 0.0000000000000000e+00 xy xz yz

Masses

1 26.982
2 12.01
3 12.01

Atoms # full

1 1 1 0.0 1.4318912299999993 0.8267027899999998 1.1690000000000005 0 0 0
2 2 1 0.0 37.22917202947173 1.6534055799999996 3.507268589999999 -1 0 0
3 3 1 0.0 0.0 0.0 5.845537180000004 0 0 0
4 4 1 0.0 1.4318713395229918 0.8266912987344918 8.16272109246264 0 0 0
5 5 1 0.0 37.22921627914922 1.6533328279675152 10.479632171187344 -1 0 0
6 6 1 0.0 8.741023468680764e-05 5.047440743619877e-05 12.796929366047067 0 0 0
7 7 1 0.0 1.4318088525539172 0.8266551861743768 15.114196126038564 0 0 0
8 8 1 0.0 37.22928828373337 1.6532493901127445 17.424743627735282 -1 0 0
9 9 1 0.0 55.84349992478921 32.24126004896723 19.740378004941412 -1 -1 0
10 10 1 0.0 2.86378246 3.3068111499999993 1.1690000000000005 0 0 0
11 11 1 0.0 38.66106325947173 4.133513939999999 3.507268589999999 -1 0 0
12 12 1 0.0 1.4318912299999975 2.4801083599999996 5.845537180000004 0 0 0
13 13 1 0.0 2.863745159205621 3.3067252307224155 8.162647528351883 0 0 0
14 14 1 0.0 38.661049554467866 4.133301053097374 10.479412137052584 -1 0 0
15 15 1 0.0 1.4318507125606574 2.479906139213848 12.796796071022257 0 0 0
16 16 1 0.0 2.8636199834706577 3.3064596725785633 15.113477838113212 0 0 0
17 17 1 0.0 38.66099691479746 4.1331334735413385 17.423401508866142 -1 0 0
18 18 1 0.0 38.661127578989884 2.480739110763395 19.739823278827547 -1 0 0
19 19 1 0.0 4.29567369 5.786919519999999 1.1690000000000005 0 0 0
20 20 1 0.0 40.09295448947173 6.6136223099999984 3.507268589999999 -1 0 0
21 21 1 0.0 40.09295448947173 4.960216729999999 5.845537180000004 -1 0 0
22 22 1 0.0 4.295670389568178 5.786822308681175 8.162530989240466 0 0 0
23 23 1 0.0 40.092975523370555 6.613406421415179 10.479063338418971 -1 0 0
24 24 1 0.0 2.8637478892096575 4.959879038351952 12.796173272275325 0 0 0
25 25 1 0.0 4.29564058090584 5.786527360615186 15.112337598993726 0 0 0
26 26 1 0.0 40.092840196418834 6.61329880180144 17.42126413296587 -1 0 0
27 27 1 0.0 40.092739884605116 4.961399286808428 19.737220379466613 -1 0 0
28 28 1 0.0 5.727564930000001 8.267027879999999 1.1690000000000005 0 0 0
29 29 1 0.0 41.524845729471714 9.093730669999998 3.507268589999999 -1 0 0
30 30 1 0.0 4.295673699999994 7.440325089999998 5.845537180000004 0 0 0
31 31 1 0.0 5.727617706193881 8.266992382625789 8.162472169253864 0 0 0
32 32 1 0.0 41.52496434402447 9.093651844483249 10.478887189014905 -1 0 0
33 33 1 0.0 4.295774397919047 7.440086460682605 12.795597783015214 0 0 0
34 34 1 0.0 5.727759320427102 8.26689473616775 15.11176102147223 0 0 0
35 35 1 0.0 41.524861936109566 9.093701470199582 17.42018024766594 -1 0 0
36 36 1 0.0 41.523988694894214 7.441354523525412 19.734801167310945 -1 0 0
37 37 1 0.0 7.15945616 10.747136249999999 1.1690000000000005 0 0 0
38 38 1 0.0 42.956736959471726 11.573839039999998 3.507268589999999 -1 0 0
39 39 1 0.0 5.72756493 9.920433459999998 5.845537180000004 0 0 0
40 40 1 0.0 7.159538588683944 10.747182118948542 8.162521995586804 0 0 0
41 41 1 0.0 42.95693151443106 11.573918825115873 10.479036406798798 -1 0 0
42 42 1 0.0 5.72781313878908 9.920443359952031 12.795568238446538 0 0 0
43 43 1 0.0 7.159777964996884 10.747338240448126 15.112249475535172 0 0 0
44 44 1 0.0 42.95694589413938 11.574085925640803 17.42109862895053 -1 0 0
45 45 1 0.0 42.955431161057874 9.920734906842496 19.734676606580685 -1 0 0
46 46 1 0.0 8.59134739 13.227244609999996 1.1690000000000005 0 0 0
47 47 1 0.0 44.388628189471724 14.053947399999997 3.507268589999999 -1 0 0
48 48 1 0.0 7.159456159999992 12.400541819999997 5.845537180000004 0 0 0
49 49 1 0.0 8.591407425105977 13.22732114064757 8.162637322510939 0 0 0
50 50 1 0.0 44.38881141092731 14.054070078747399 10.479381600090377 -1 0 0
51 51 1 0.0 7.159736257833552 12.400734390092499 12.796110304962912 0 0 0
52 52 1 0.0 8.59158720254236 13.227566882855447 15.113378082456421 0 0 0
53 53 1 0.0 44.388925518063715 14.054209372079345 17.423214824791614 -1 0 0
54 54 1 0.0 44.387456323455254 12.400171196516418 19.73695631531971 -1 0 0
55 55 1 0.0 10.023238619999997 15.707352979999992 1.1690000000000005 0 0 0
56 56 1 0.0 45.82051941947173 16.534055769999995 3.507268589999999 -1 0 0
57 57 1 0.0 45.82051941947172 14.880650189999997 5.845537180000004 -1 0 0
58 58 1 0.0 10.02324363295736 15.707383042267734 8.16271848073125 0 0 0
59 59 1 0.0 45.820614037685516 16.534068837838056 10.479624364291347 -1 0 0
60 60 1 0.0 8.591516753766792 14.880801686490225 12.796754114202603 0 0 0
61 61 1 0.0 10.023259049754607 15.70747761205412 15.114170668812541 0 0 0
62 62 1 0.0 45.820728144331596 16.534063051262383 17.424696142411385 -1 0 0
63 63 1 0.0 45.81994558011693 14.880245161081454 19.739648486248203 -1 0 0
64 64 1 0.0 11.455129849999983 18.187461339999995 1.1690000000000005 0 0 0
65 65 1 0.0 47.25241064947173 19.014164129999997 3.507268589999999 -1 0 0
66 66 1 0.0 47.25241064947173 17.360758549999996 5.845537180000004 -1 0 0
67 67 1 0.0 11.455094691814635 18.187407988719578 8.162695488139128 0 0 0
68 68 1 0.0 47.25241581096982 19.0140098358202 10.479555602613107 -1 0 0
69 69 1 0.0 10.02325032141991 17.360681409984437 12.796944500017013 0 0 0
70 70 1 0.0 11.454981407169194 18.1872420400908 15.113946308001331 0 0 0
71 71 1 0.0 47.25242765646141 19.013868373027183 17.424277359826426 -1 0 0
72 72 1 0.0 47.252382747533304 17.360983557804634 19.74044093045176 -1 0 0
73 73 1 0.0 12.887021090000003 20.667569709999995 1.1690000000000005 0 0 0
74 74 1 0.0 48.684301889471726 21.494272499999997 3.507268589999999 -1 0 0
75 75 1 0.0 11.45512986 19.840866919999996 5.845537180000004 0 0 0
76 76 1 0.0 12.886995277110959 20.66746794260948 8.162588158122237 0 0 0
77 77 1 0.0 48.68429389271517 21.494037346560543 10.479234472106086 -1 0 0
78 78 1 0.0 11.455072602510695 19.84057065407727 12.796517826176018 0 0 0
79 79 1 0.0 12.886900161352159 20.667155794002866 15.11289731418048 0 0 0
80 80 1 0.0 48.68418791956037 21.49388173529193 17.422314262816393 -1 0 0
81 81 1 0.0 48.6842990707921 19.84184312649342 19.738662598450077 -1 0 0
82 82 1 0.0 14.31891232 23.147678069999998 1.1690000000000005 0 0 0
83 83 1 0.0 50.11619311947173 23.974380859999997 3.507268589999999 -1 0 0
84 84 1 0.0 12.887021089999985 22.320975279999995 5.845537180000004 0 0 0
85 85 1 0.0 14.318937381489134 23.147604769193958 8.162489109670659 0 0 0
86 86 1 0.0 50.116259851572515 23.974221377474098 10.478937931345094 -1 0 0
87 87 1 0.0 12.88704352044035 22.32065833161839 12.79584112436742 0 0 0
88 88 1 0.0 14.318993120166184 23.14738716673089 15.111927197420702 0 0 0
89 89 1 0.0 50.116125971641694 23.97418775642536 17.42049290319704 -1 0 0
90 90 1 0.0 50.115670050884134 22.322177122433317 19.735825811078588 -1 0 0
91 91 1 0.0 15.750803549999986 25.627786439999994 1.1690000000000005 0 0 0
92 92 1 0.0 51.54808434947173 26.454489229999993 3.507268589999999 -1 0 0
93 93 1 0.0 51.54808434947172 24.801083649999992 5.845537180000004 -1 0 0
94 94 1 0.0 15.750877038224134 25.62779395012953 8.162484030532802 0 0 0
95 95 1 0.0 51.54824910903601 26.454496769668467 10.478922716092391 -1 0 0
96 96 1 0.0 14.319094548500841 24.800962993618924 12.79549918947167 0 0 0
97 97 1 0.0 15.751084930668592 25.627831266978898 15.111877371601203 0 0 0
98 98 1 0.0 51.54820032630218 26.454619164336226 17.420399196954843 -1 0 0
99 99 1 0.0 51.54694469514726 24.801788036469862 19.734385479722786 -1 0 0
100 100 1 0.0 17.182694779999974 28.107894799999993 1.1690000000000005 0 0 0
101 101 1 0.0 52.979975579471706 28.934597589999992 3.507268589999999 -1 0 0
102 102 1 0.0 52.979975579471706 27.281192009999994 5.845537180000004 -1 0 0
103 103 1 0.0 17.18277235426511 28.10796557732431 8.162577315567944 0 0 0
104 104 1 0.0 52.98017678827312 28.93471892026103 10.479202024069046 -1 0 0
105 105 1 0.0 15.751087055412368 27.281314974402793 12.795788857284943 0 0 0
106 106 1 0.0 17.183001462094474 28.108196885999305 15.112791203261366 0 0 0
107 107 1 0.0 52.980249666536764 28.934891943749648 17.422115345202283 -1 0 0
108 108 1 0.0 52.978658349778435 27.281105461541717 19.73560592644246 -1 0 0
109 109 1 0.0 18.614586009999993 30.588003159999992 1.1690000000000005 0 0 0
110 110 1 0.0 54.41186680947173 31.41470594999999 3.507268589999999 -1 0 0
111 111 1 0.0 54.41186680947172 29.761300369999994 5.845537180000004 -1 0 0
112 112 1 0.0 18.6146198655833 30.588065000617284 8.162688254341482 0 0 0
113 113 1 0.0 54.41201157136405 31.414789558475007 10.479533968838503 -1 0 0
114 114 1 0.0 17.182933667937437 29.76150319612107 12.79645860685666 0 0 0
115 115 1 0.0 18.614722570198648 30.588261286807306 15.113875671986232 0 0 0
116 116 1 0.0 54.41214058764235 31.414864016685254 17.424145422572444 -1 0 0
117 117 1 0.0 54.41096339171918 29.760815045345133 19.738415062165814 -1 0 0
118 118 1 0.0 4.29567369 0.8267027899999998 1.1690000000000005 0 0 0
119 119 1 0.0 2.8637824599999986 1.6534055799999996 3.507268589999999 0 0 0
120 120 1 0.0 2.86378246 0.0 5.845537180000004 0 0 0
121 121 1 0.0 4.295580634573077 0.8267134357510962 8.16264756652295 0 0 0
122 122 1 0.0 2.86368361956195 1.6533485006879403 10.479575869301833 0 0 0
123 123 1 0.0 2.8635870906287533 6.601904381492999e-05 12.796796279064061 0 0 0
124 124 1 0.0 4.295288082749249 0.8267377651009584 15.11347821783778 0 0 0
125 125 1 0.0 2.8635225393201864 1.6532555167615512 17.42440474577821 0 0 0
126 126 1 0.0 21.478946350497353 32.24114970745745 19.73982413236562 0 -1 0
127 127 1 0.0 5.727564930000001 3.3068111499999993 1.1690000000000005 0 0 0
128 128 1 0.0 4.2956737 4.133513939999999 3.507268589999999 0 0 0
129 129 1 0.0 4.295673699999999 2.4801083599999996 5.845537180000004 0 0 0
130 130 1 0.0 5.72750581809773 3.3067770236472307 8.162575104400439 0 0 0
131 131 1 0.0 4.295609439428661 4.133370173510743 10.479312524356107 0 0 0
132 132 1 0.0 4.29548402446495 2.479998836027252 12.796485939428571 0 0 0
133 133 1 0.0 5.727307442496069 3.306662472725393 15.112817158060032 0 0 0
134 134 1 0.0 4.29536362764881 4.13321670414951 17.422817332950622 0 0 0
135 135 1 0.0 4.295974993905834 2.4802829311204433 19.738452029228753 0 0 0
136 136 1 0.0 7.15945616 5.786919519999999 1.1690000000000005 0 0 0
137 137 1 0.0 5.72756493 6.6136223099999984 3.507268589999999 0 0 0
138 138 1 0.0 5.72756493 4.960216729999999 5.845537180000004 0 0 0
139 139 1 0.0 7.159453084581456 5.786886885133364 8.162508257201353 0 0 0
140 140 1 0.0 5.7275981270734295 6.6135119227037125 10.479069445858617 0 0 0
141 141 1 0.0 5.72751005271301 4.960046276314894 12.795993940556155 0 0 0
142 142 1 0.0 7.159425330872603 5.786787350612525 15.11220648998307 0 0 0
143 143 1 0.0 5.7273831244163755 6.613486782921642 17.42134890184852 0 0 0
144 144 1 0.0 5.727227549063325 4.96073471090222 19.736277883805503 0 0 0
145 145 1 0.0 8.59134739 8.267027879999999 1.1690000000000005 0 0 0
146 146 1 0.0 7.159456159999991 9.093730669999998 3.507268589999999 0 0 0
147 147 1 0.0 7.159456159999994 7.440325089999998 5.845537180000004 0 0 0
148 148 1 0.0 8.591374004674842 8.267041770539453 8.162504825630919 0 0 0
149 149 1 0.0 7.159565416034995 9.093745071755043 10.479056972309166 0 0 0
150 150 1 0.0 7.15954885435737 7.4402613638159805 12.795745467827196 0 0 0
151 151 1 0.0 8.591445044434133 8.267098917937014 15.112175137860383 0 0 0
152 152 1 0.0 7.159468276576915 9.093927823728787 17.421273463528166 0 0 0
153 153 1 0.0 7.158668637402495 7.440796619135061 19.735180631521402 0 0 0
154 154 1 0.0 10.02323862 10.747136249999999 1.1690000000000005 0 0 0
155 155 1 0.0 8.591347389999996 11.573839039999998 3.507268589999999 0 0 0
156 156 1 0.0 8.59134739 9.920433459999998 5.845537180000004 0 0 0
157 157 1 0.0 10.023242898670693 10.747201439954253 8.16256778330801 0 0 0
158 158 1 0.0 8.591445471374843 11.573961624134721 10.479285913721835 0 0 0
159 159 1 0.0 8.591472472660126 9.920551944728693 12.79595594497809 0 0 0
160 160 1 0.0 10.023255271501982 10.747421294618631 15.112750324685447 0 0 0
161 161 1 0.0 8.591450632421239 11.57425126109448 17.422656741889195 0 0 0
162 162 1 0.0 8.590689912459686 9.920509043169147 19.736110080655727 0 0 0
163 163 1 0.0 11.455129849999997 13.227244609999996 1.1690000000000005 0 0 0
164 164 1 0.0 10.023238619999995 14.053947399999997 3.507268589999999 0 0 0
165 165 1 0.0 10.023238619999995 12.400541819999997 5.845537180000004 0 0 0
166 166 1 0.0 11.455079108436289 13.227321564963555 8.1626426785921 0 0 0
167 167 1 0.0 10.02324811965837 14.054068094728194 10.479558118559375 0 0 0
168 168 1 0.0 10.023253130881562 12.400760191665 12.796442861916304 0 0 0
169 169 1 0.0 11.454927150373642 13.227569122634597 15.113433667679143 0 0 0
170 170 1 0.0 10.023253958382512 14.054270203788887 17.424297859781074 0 0 0
171 171 1 0.0 10.023178302595408 12.400216749798274 19.73826160658295 0 0 0
172 172 1 0.0 12.887021089999998 15.707352979999992 1.1690000000000005 0 0 0
173 173 1 0.0 11.455129859999984 16.534055769999995 3.507268589999999 0 0 0
174 174 1 0.0 11.45512986 14.880650189999997 5.845537180000004 0 0 0
175 175 1 0.0 12.886930169119278 15.707392041331849 8.1626648538085 0 0 0
176 176 1 0.0 11.455049893735346 16.534066333570294 10.479638668616019 0 0 0
177 177 1 0.0 11.454986695236219 14.880800068963993 12.796785271018148 0 0 0
178 178 1 0.0 12.886649642873117 15.707508930442456 15.113635783864481 0 0 0
179 179 1 0.0 11.454953470551308 16.53406402469772 17.424782733901054 0 0 0
180 180 1 0.0 11.455615542807266 14.88026382462905 19.739775439909284 0 0 0
181 181 1 0.0 14.318912319999981 18.187461339999995 1.1690000000000005 0 0 0
182 182 1 0.0 12.887021089999989 19.014164129999997 3.507268589999999 0 0 0
183 183 1 0.0 12.88702108999998 17.360758549999996 5.845537180000004 0 0 0
184 184 1 0.0 14.318830735831373 18.187445566606712 8.162615177713988 0 0 0
185 185 1 0.0 12.886927902544128 19.014051344161064 10.479458181800755 0 0 0
186 186 1 0.0 12.886808912568146 17.360730977939394 12.79668829960666 0 0 0
187 187 1 0.0 14.31856776061303 18.18738641748931 15.11318285823808 0 0 0
188 188 1 0.0 12.886712728785668 19.013903897647292 17.423695787812928 0 0 0
189 189 1 0.0 12.887532464896942 17.360701732895524 19.739346623792034 0 0 0
190 190 1 0.0 15.75080355 20.667569709999995 1.1690000000000005 0 0 0
191 191 1 0.0 14.31891232 21.494272499999997 3.507268589999999 0 0 0
192 192 1 0.0 14.31891231999999 19.840866919999996 5.845537180000004 0 0 0
193 193 1 0.0 15.750772777894296 20.667529481650888 8.162536508312023 0 0 0
194 194 1 0.0 14.318893679000961 21.494129567557923 10.479172196481812 0 0 0
195 195 1 0.0 14.31877939941893 19.840705802395295 12.796235352859142 0 0 0
196 196 1 0.0 15.750659335141147 20.6674003147279 15.112464707957962 0 0 0
197 197 1 0.0 14.318648009170843 21.494020123392918 17.421970088664235 0 0 0
198 198 1 0.0 14.318907487988126 19.84124908471543 19.737344430645063 0 0 0
199 199 1 0.0 17.18269478 23.147678069999998 1.1690000000000005 0 0 0
200 200 1 0.0 15.75080355 23.974380859999997 3.507268589999999 0 0 0
201 201 1 0.0 15.750803549999986 22.320975279999995 5.845537180000004 0 0 0
202 202 1 0.0 17.182712425304626 23.147664964725074 8.162496810514927 0 0 0
203 203 1 0.0 15.75088292625587 23.974327255695087 10.479027822070247 0 0 0
204 204 1 0.0 15.750830142528752 22.320839949073388 12.795817051251596 0 0 0
205 205 1 0.0 17.182751302719733 23.14763266555989 15.112101902266652 0 0 0
206 206 1 0.0 15.750721618252376 23.97440759388624 17.42109721460881 0 0 0
207 207 1 0.0 15.75018348715118 22.32152557988366 19.735496789005108 0 0 0
208 208 1 0.0 18.614586009999982 25.627786439999994 1.1690000000000005 0 0 0
209 209 1 0.0 17.18269477999999 26.454489229999993 3.507268589999999 0 0 0
210 210 1 0.0 17.18269477999999 24.801083649999992 5.845537180000004 0 0 0
211 211 1 0.0 18.614607805999892 25.627828581308233 8.162530434566705 0 0 0
212 212 1 0.0 17.182810786961426 26.454567217447362 10.479150119467818 0 0 0
213 213 1 0.0 17.18282303291465 24.801111534863452 12.795795580078803 0 0 0
214 214 1 0.0 18.614669202674644 25.62797675336963 15.112409219717723 0 0 0
215 215 1 0.0 17.182773595807934 26.45482561308996 17.42183667271703 0 0 0
216 216 1 0.0 17.18189367199553 24.801383705078546 19.735401985824225 0 0 0
217 217 1 0.0 20.04647723999999 28.107894799999993 1.1690000000000005 0 0 0
218 218 1 0.0 18.614586009999975 28.934597589999992 3.507268589999999 0 0 0
219 219 1 0.0 18.614586009999982 27.281192009999994 5.845537180000004 0 0 0
220 220 1 0.0 20.046455344571047 28.107972551961296 8.16260828512669 0 0 0
221 221 1 0.0 18.6146456546619 28.93473557441128 10.479433137228465 0 0 0
222 222 1 0.0 18.614670014143947 27.281379229359114 12.7961895636594 0 0 0
223 223 1 0.0 20.046390715380458 28.108228237346907 15.113119970383732 0 0 0
224 224 1 0.0 18.614666295901635 28.935004770841438 17.423544814107398 0 0 0
225 225 1 0.0 18.61419608675814 27.281042037070485 19.73714209614897 0 0 0
226 226 1 0.0 21.47836848 30.588003159999992 1.1690000000000005 0 0 0
227 227 1 0.0 20.04647724999999 31.41470594999999 3.507268589999999 0 0 0
228 228 1 0.0 20.04647724999999 29.761300369999994 5.845537180000004 0 0 0
229 229 1 0.0 21.478292829764857 30.588066160832845 8.16266308873962 0 0 0
230 230 1 0.0 20.0464363761494 31.414780673370018 10.479632263866016 0 0 0
231 231 1 0.0 20.046409794588463 29.761505246396435 12.796657771303973 0 0 0
232 232 1 0.0 21.47806302323333 30.58826358632066 15.113619709872438 0 0 0
233 233 1 0.0 20.046400105700258 31.414884728510216 17.424744195389884 0 0 0
234 234 1 0.0 20.046732834597833 29.760890207865547 19.7392116614215 0 0 0
235 235 1 0.0 7.15945616 0.8267027899999998 1.1690000000000005 0 0 0
236 236 1 0.0 5.72756493 1.6534055799999996 3.507268589999999 0 0 0
237 237 1 0.0 5.727564930000001 0.0 5.845537180000004 0 0 0
238 238 1 0.0 7.159370295705667 0.8267485393355216 8.162531040976923 0 0 0
239 239 1 0.0 5.7274082789806755 1.6534218126636278 10.479312614750903 0 0 0
240 240 1 0.0 5.727255150757021 0.00013893421447197328 12.796173625559398 0 0 0
241 241 1 0.0 7.159099884667462 0.8268702041645424 15.112338145910414 0 0 0
242 242 1 0.0 5.727152377474146 1.6532857336160751 17.422817893360055 0 0 0
243 243 1 0.0 24.34306735228987 32.24063217855513 19.737221776597373 0 -1 0
244 244 1 0.0 8.59134739 3.3068111499999993 1.1690000000000005 0 0 0
245 245 1 0.0 7.15945616 4.133513939999999 3.507268589999999 0 0 0
246 246 1 0.0 7.15945616 2.4801083599999996 5.845537180000004 0 0 0
247 247 1 0.0 8.591317567295873 3.306824818790416 8.162508268939412 0 0 0
248 248 1 0.0 7.1593968549363876 4.133479717658243 10.479154646931242 0 0 0
249 249 1 0.0 7.159281064722501 2.4801460693993826 12.795994085236273 0 0 0
250 250 1 0.0 8.591217417183277 3.3068505740049696 15.112206655636115 0 0 0
251 251 1 0.0 7.159170507792997 4.133349137778771 17.42189271012458 0 0 0
252 252 1 0.0 7.159735645477911 2.479558047828048 19.736278419130077 0 0 0
253 253 1 0.0 10.02323862 5.786919519999999 1.1690000000000005 0 0 0
254 254 1 0.0 8.59134739 6.6136223099999984 3.507268589999999 0 0 0
255 255 1 0.0 8.59134739 4.960216729999999 5.845537180000004 0 0 0
256 256 1 0.0 10.023238486742507 5.786919467942255 8.16249676495918 0 0 0
257 257 1 0.0 8.591364133435572 6.613609236791395 10.47907491893216 0 0 0
258 258 1 0.0 8.591319691076606 4.960200783487584 12.795828302026635 0 0 0
259 259 1 0.0 10.023237103585199 5.7869187555817785 15.112140143705975 0 0 0
260 260 1 0.0 8.591255389889815 6.613658750370851 17.42142610010422 0 0 0
261 261 1 0.0 8.591178420242457 4.960119648994574 19.73541425882244 0 0 0
262 262 1 0.0 11.45512985 8.267027879999999 1.1690000000000005 0 0 0
263 263 1 0.0 10.023238619999994 9.093730669999998 3.507268589999999 0 0 0
264 264 1 0.0 10.023238619999994 7.440325089999998 5.845537180000004 0 0 0
265 265 1 0.0 11.455107383038646 8.267044318764302 8.162506506355108 0 0 0
266 266 1 0.0 10.02324430296089 9.093792096267226 10.47914244904117 0 0 0
267 267 1 0.0 10.02324346630338 7.440349658962599 12.795819787825554 0 0 0
268 268 1 0.0 11.455047404195525 8.26710946097222 15.112196473420013 0 0 0
269 269 1 0.0 10.023239266386405 9.094041246950484 17.421821323770832 0 0 0
270 270 1 0.0 10.023198147960269 7.440513751315566 19.7353700616817 0 0 0
271 271 1 0.0 12.887021090000001 10.747136249999999 1.1690000000000005 0 0 0
272 272 1 0.0 11.45512986 11.573839039999998 3.507268589999999 0 0 0
273 273 1 0.0 11.45512986 9.920433459999998 5.845537180000004 0 0 0
274 274 1 0.0 12.88694354414256 10.747185092901596 8.162529045377518 0 0 0
275 275 1 0.0 11.455046961804364 11.573963833661724 10.47929877456681 0 0 0
276 276 1 0.0 11.455024155217096 9.920557550856524 12.79597592494525 0 0 0
277 277 1 0.0 12.886718423437866 10.747351012407282 15.112326620500411 0 0 0
278 278 1 0.0 11.455042779237917 11.57425979442088 17.42273679297755 0 0 0
279 279 1 0.0 11.455686295177184 9.920497269296666 19.73618347549225 0 0 0
280 280 1 0.0 14.31891232 13.227244609999996 1.1690000000000005 0 0 0
281 281 1 0.0 12.887021089999998 14.053947399999997 3.507268589999999 0 0 0
282 282 1 0.0 12.887021089999998 12.400541819999997 5.845537180000004 0 0 0
283 283 1 0.0 14.318794574322032 13.22731383309363 8.162544885546964 0 0 0
284 284 1 0.0 12.88684871530641 14.054069771985905 10.479408781972413 0 0 0
285 285 1 0.0 12.886757578832722 12.400738357895468 12.796161520479284 0 0 0
286 286 1 0.0 14.318440820702657 13.2275287583487 15.112418031832014 0 0 0
287 287 1 0.0 12.886741676263927 14.054218707998707 17.423381868562217 0 0 0
288 288 1 0.0 12.888124278171555 12.400178285095953 19.73715792929727 0 0 0
289 289 1 0.0 15.75080355 15.707352979999992 1.1690000000000005 0 0 0
290 290 1 0.0 14.318912319999981 16.534055769999995 3.507268589999999 0 0 0
291 291 1 0.0 14.31891232 14.880650189999997 5.845537180000004 0 0 0
292 292 1 0.0 15.750695188844688 15.707412944280039 8.162540401351293 0 0 0
293 293 1 0.0 14.318726756475332 16.53411207039545 10.479377622715411 0 0 0
294 294 1 0.0 14.318579942487302 14.880829723646485 12.796216411046931 0 0 0
295 295 1 0.0 15.750359967066949 15.707582993207495 15.112392141325515 0 0 0
296 296 1 0.0 14.318501472716015 16.53404742820333 17.423199038918984 0 0 0
297 297 1 0.0 14.320039539325627 14.879922062416055 19.737447804856266 0 0 0
298 298 1 0.0 17.182694779999974 18.187461339999995 1.1690000000000005 0 0 0
299 299 1 0.0 15.75080355 19.014164129999997 3.507268589999999 0 0 0
300 300 1 0.0 15.750803549999977 17.360758549999996 5.845537180000004 0 0 0
301 301 1 0.0 17.182637262999584 18.18749037302631 8.162519441028891 0 0 0
302 302 1 0.0 15.75069246655486 19.014147678316675 10.479232138096279 0 0 0
303 303 1 0.0 15.750550517307943 17.360846303487826 12.79609340212275 0 0 0
304 304 1 0.0 17.182451669451304 18.18755995117123 15.11227118718761 0 0 0
305 305 1 0.0 15.750436185647832 19.013987836633753 17.42234643296719 0 0 0
306 306 1 0.0 15.751414153020686 17.360046145774366 19.73679927427949 0 0 0
307 307 1 0.0 18.61458601 20.667569709999995 1.1690000000000005 0 0 0
308 308 1 0.0 17.18269478 21.494272499999997 3.507268589999999 0 0 0
309 309 1 0.0 17.18269478 19.840866919999996 5.845537180000004 0 0 0
310 310 1 0.0 18.61457690511684 20.66757286946408 8.162500076158032 0 0 0
311 311 1 0.0 17.1826816247462 21.494239477131707 10.47909787935182 0 0 0
312 312 1 0.0 17.18260102507304 19.840867174223305 12.795898380107218 0 0 0
313 313 1 0.0 18.614543276428098 20.667573230883548 15.112159308443722 0 0 0
314 314 1 0.0 17.18250856994754 21.494184443725594 17.421560504863123 0 0 0
315 315 1 0.0 17.182692963734244 19.84053896919703 19.735778819717513 0 0 0
316 316 1 0.0 20.04647724 23.147678069999998 1.1690000000000005 0 0 0
317 317 1 0.0 18.61458601 23.974380859999997 3.507268589999999 0 0 0
318 318 1 0.0 18.61458600999999 22.320975279999995 5.845537180000004 0 0 0
319 319 1 0.0 20.046472293180198 23.14768280974879 8.16249907878695 0 0 0
320 320 1 0.0 18.61460956405692 23.97440187370071 10.47909098829265 0 0 0
321 321 1 0.0 18.614593926063872 22.320968100980835 12.795799901993782 0 0 0
322 322 1 0.0 20.046461411127904 23.147705499051035 15.112153544535872 0 0 0
323 323 1 0.0 18.614561410904813 23.974561128082744 17.421520177215427 0 0 0
324 324 1 0.0 18.614402839731625 22.321064484749428 19.735266899494555 0 0 0
325 325 1 0.0 21.47836848 25.627786439999994 1.1690000000000005 0 0 0
326 326 1 0.0 20.04647724999999 26.454489229999993 3.507268589999999 0 0 0
327 327 1 0.0 20.04647724999999 24.801083649999992 5.845537180000004 0 0 0
328 328 1 0.0 21.478319810409403 25.627818786143685 8.162517319679882 0 0 0
329 329 1 0.0 20.046444509057594 26.454588099795274 10.479217432167104 0 0 0
330 330 1 0.0 20.04644107379879 24.80115559030239 12.79588330835108 0 0 0
331 331 1 0.0 21.478182472965 25.627935581770654 15.112258910095932 0 0 0
332 332 1 0.0 20.04645533256222 26.454886627206886 17.42226030875482 0 0 0
333 333 1 0.0 20.04670380404928 24.80126297829022 19.73570034857774 0 0 0
334 334 1 0.0 22.910259709999995 28.107894799999993 1.1690000000000005 0 0 0
335 335 1 0.0 21.47836848 28.934597589999992 3.507268589999999 0 0 0
336 336 1 0.0 21.47836848 27.281192009999994 5.845537180000004 0 0 0
337 337 1 0.0 22.910157239803226 28.1079569511997 8.162538986471652 0 0 0
338 338 1 0.0 21.47823520031412 28.93473086137316 10.479367810299113 0 0 0
339 339 1 0.0 21.47818073625534 27.281361049236956 12.796076308745292 0 0 0
340 340 1 0.0 22.909854044811105 28.10815824691947 15.112383970487745 0 0 0
341 341 1 0.0 21.478188539978635 28.934972829502048 17.42314149204728 0 0 0
342 342 1 0.0 21.479241356736086 27.281060238800027 19.73670949454883 0 0 0
343 343 1 0.0 24.342150939999996 30.588003159999992 1.1690000000000005 0 0 0
344 344 1 0.0 22.910259709999995 31.41470594999999 3.507268589999999 0 0 0
345 345 1 0.0 22.910259709999995 29.761300369999994 5.845537180000004 0 0 0
346 346 1 0.0 24.34203107367027 30.588071604894605 8.162545394858089 0 0 0
347 347 1 0.0 22.910068476479374 31.414800563218893 10.479412320394289 0 0 0
348 348 1 0.0 22.90994402986994 29.76150070145865 12.796212043236437 0 0 0
349 349 1 0.0 24.341665782867402 30.588275282726404 15.112420978320252 0 0 0
350 350 1 0.0 22.90989694256611 31.414838785963113 17.42340263927244 0 0 0
351 351 1 0.0 22.911454510494224 29.760721553778357 19.737424723438174 0 0 0
352 352 1 0.0 10.02323862 0.8267027899999998 1.1690000000000005 0 0 0
353 353 1 0.0 8.59134739 1.6534055799999996 3.507268589999999 0 0 0
354 354 1 0.0 8.59134739 0.0 5.845537180000004 0 0 0
355 355 1 0.0 10.023234213950277 0.8267662717438226 8.162472198265924 0 0 0
356 356 1 0.0 8.591268325880952 1.6534895522528423 10.479069544209956 0 0 0
357 357 1 0.0 8.591190946611924 0.00020661186520331849 12.795598091719292 0 0 0
358 358 1 0.0 10.023220295815511 0.826937793140534 15.111761375410893 0 0 0
359 359 1 0.0 8.591138918758215 1.6533160152341406 17.42134953024314 0 0 0
360 360 1 0.0 27.206396366867477 32.2401521742669 19.73480232556704 0 -1 0
361 361 1 0.0 11.45512985 3.3068111499999993 1.1690000000000005 0 0 0
362 362 1 0.0 10.02323862 4.133513939999999 3.507268589999999 0 0 0
363 363 1 0.0 10.02323862 2.4801083599999996 5.845537180000004 0 0 0
364 364 1 0.0 11.455155134163126 3.3068272855941423 8.162504816341482 0 0 0
365 365 1 0.0 10.02323560536854 4.1335350315319035 10.479074926737919 0 0 0
366 366 1 0.0 10.023229645295366 2.480220560603749 12.795745567087856 0 0 0
367 367 1 0.0 11.455239984346223 3.306860308322526 15.112175109697933 0 0 0
368 368 1 0.0 10.02322397899719 4.133416279386827 17.421426164621614 0 0 0
369 369 1 0.0 10.02325317910321 2.479191225000785 19.73518091630149 0 0 0
370 370 1 0.0 12.88702109 5.786919519999999 1.1690000000000005 0 0 0
371 371 1 0.0 11.45512986 6.6136223099999984 3.507268589999999 0 0 0
372 372 1 0.0 11.45512986 4.960216729999999 5.845537180000004 0 0 0
373 373 1 0.0 12.887024031048075 5.7868918994945915 8.162506488116122 0 0 0
374 374 1 0.0 11.45511577691169 6.613614259786514 10.479075194452506 0 0 0
375 375 1 0.0 11.455153416979657 4.960208765123384 12.795819742393483 0 0 0
376 376 1 0.0 12.88705029453665 5.786807563617711 15.112196279638024 0 0 0
377 377 1 0.0 11.455207887362086 6.613667594968158 17.421430052700345 0 0 0
378 378 1 0.0 11.455272963731716 4.960087843924542 19.735369808690724 0 0 0
379 379 1 0.0 14.31891232 8.267027879999999 1.1690000000000005 0 0 0
380 380 1 0.0 12.887021089999998 9.093730669999998 3.507268589999999 0 0 0
381 381 1 0.0 12.88702109 7.440325089999998 5.845537180000004 0 0 0
382 382 1 0.0 14.318860152357594 8.26699782765304 8.162475772402416 0 0 0
383 383 1 0.0 12.886918336965245 9.093752310137715 10.479070132469246 0 0 0
384 384 1 0.0 12.886933968177395 7.440274950062194 12.795756905271624 0 0 0
385 385 1 0.0 14.318720245981712 8.26691723827587 15.111806721229168 0 0 0
386 386 1 0.0 12.8870100725785 9.093945312471638 17.42135792858813 0 0 0
387 387 1 0.0 12.887762437083893 7.44075315410242 19.73520985283404 0 0 0
388 388 1 0.0 15.75080355 10.747136249999999 1.1690000000000005 0 0 0
389 389 1 0.0 14.31891232 11.573839039999998 3.507268589999999 0 0 0
390 390 1 0.0 14.31891232 9.920433459999998 5.845537180000004 0 0 0
391 391 1 0.0 15.750711113501833 10.747147199282146 8.162439104072952 0 0 0
392 392 1 0.0 14.318719933148508 11.573923543044378 10.479063937934754 0 0 0
393 393 1 0.0 14.318666905139633 9.920455327773025 12.795611021686707 0 0 0
394 394 1 0.0 15.75044138941942 10.747188526851582 15.111341465443545 0 0 0
395 395 1 0.0 14.318706251004446 11.574104149527573 17.421271015715515 0 0 0
396 396 1 0.0 14.320204266099879 9.920710228742458 19.734835659175634 0 0 0
397 397 1 0.0 17.18269478 13.227244609999996 1.1690000000000005 0 0 0
398 398 1 0.0 15.75080355 14.053947399999997 3.507268589999999 0 0 0
399 399 1 0.0 15.750803549999992 12.400541819999997 5.845537180000004 0 0 0
400 400 1 0.0 17.182611745558532 13.22730465238824 8.162428218707575 0 0 0