LAMMPS data file via write_data, version 30 Jun 2020, timestep = 7299

4806 atoms
5 atom types

0.0000000000000000e+00 3.7229172029471727e+01 xlo xhi
0.0000000000000000e+00 3.2241408739383573e+01 ylo yhi
-1.0000000000000000e+01 7.0000000000000000e+01 zlo zhi
1.8614586014735863e+01 0.0000000000000000e+00 0.0000000000000000e+00 xy xz yz

Masses

1 26.982
2 12.01
3 12.01
4 95.96
5 32.06

Atoms # full

1 1 1 0.0 1.4318912299999993 0.8267027899999998 1.1690000000000005 0 0 0
2 2 1 0.0 37.22917202947173 1.6534055799999996 3.507268589999999 -1 0 0
3 3 1 0.0 0.0 0.0 5.845537180000004 0 0 0
4 4 1 0.0 1.4318886614627049 0.8267012859320336 8.18361280227635 0 0 0
1462 1462 1 0.0 44.38866695843494 15.707339619221125 8.183562719769213 0 0 0
1461 1461 1 0.0 42.95673696 14.880650189999997 5.845537180000004 0 0 0
1459 1459 1 0.0 44.38862818999998 15.707352979999992 1.1690000000000005 0 0 0
10 10 1 0.0 2.86378246 3.3068111499999993 1.1690000000000005 0 0 0
11 11 1 0.0 38.66106325947173 4.133513939999999 3.507268589999999 -1 0 0
12 12 1 0.0 1.431891229999997 2.4801083599999996 5.845537180000004 0 0 0
13 13 1 0.0 2.8637923955333013 3.306795687781189 8.183605189926645 0 0 0
1453 1453 1 0.0 42.9567740344549 13.227228468664313 8.183557780520722 0 0 0
1452 1452 1 0.0 41.524845729999996 12.400541819999997 5.845537180000004 0 0 0
1451 1451 1 0.0 41.524845729999996 14.053947399999997 3.507268589999999 0 0 0
19 19 1 0.0 4.29567369 5.786919519999999 1.1690000000000005 0 0 0
20 20 1 0.0 40.09295448947173 6.6136223099999984 3.507268589999999 -1 0 0
21 21 1 0.0 40.09295448947173 4.960216729999999 5.845537180000004 -1 0 0
22 22 1 0.0 4.295697668047017 5.786888734521941 8.18359225813549 0 0 0
1450 1450 1 0.0 42.95673696 13.227244609999996 1.1690000000000005 0 0 0
1444 1444 1 0.0 41.52487846982634 10.747110937901137 8.183550792269717 0 0 0
1443 1443 1 0.0 40.09295449 9.920433459999998 5.845537180000004 0 0 0
28 28 1 0.0 5.727564930000001 8.267027879999999 1.1690000000000005 0 0 0
29 29 1 0.0 41.524845729471714 9.093730669999998 3.507268589999999 -1 0 0
30 30 1 0.0 4.295673699999992 7.440325089999998 5.845537180000004 0 0 0
31 31 1 0.0 5.727596734201157 8.266995282109026 8.183582019828325 0 0 0
1442 1442 1 0.0 40.09295449 11.573839039999998 3.507268589999999 0 0 0
1441 1441 1 0.0 41.52484572000003 10.747136249999999 1.1690000000000005 0 0 0
1435 1435 1 0.0 40.092979217027676 8.266990635650894 8.183549457001664 0 0 0
37 37 1 0.0 7.15945616 10.747136249999999 1.1690000000000005 0 0 0
38 38 1 0.0 42.956736959471726 11.573839039999998 3.507268589999999 -1 0 0
39 39 1 0.0 5.72756493 9.920433459999998 5.845537180000004 0 0 0
40 40 1 0.0 7.159492421106305 10.7471139544576 8.183581161047663 0 0 0
1434 1434 1 0.0 38.66106325999999 7.440325089999998 5.845537180000004 0 0 0
1433 1433 1 0.0 38.66106325999999 9.093730669999998 3.507268589999999 0 0 0
1432 1432 1 0.0 40.09295449 8.267027879999999 1.1690000000000005 0 0 0
46 46 1 0.0 8.59134739 13.227244609999996 1.1690000000000005 0 0 0
47 47 1 0.0 44.388628189471724 14.053947399999997 3.507268589999999 -1 0 0
48 48 1 0.0 7.15945615999999 12.400541819999997 5.845537180000004 0 0 0
49 49 1 0.0 8.59138552739251 13.227230208015541 8.183588352202932 0 0 0
1426 1426 1 0.0 38.66107359971364 5.78688062965196 8.18356786851568 0 0 0
1425 1425 1 0.0 37.22917203 4.960216729999999 5.845537180000004 0 0 0
1424 1424 1 0.0 37.22917203 6.6136223099999984 3.507268589999999 0 0 0
55 55 1 0.0 10.023238619999997 15.707352979999992 1.1690000000000005 0 0 0
57 57 1 0.0 45.82051941947172 14.880650189999997 5.845537180000004 -1 0 0
58 58 1 0.0 10.023272519334654 15.70733772383329 8.183595170299455 0 0 0
1423 1423 1 0.0 38.66106325999999 5.786919519999999 1.1690000000000005 0 0 0
1417 1417 1 0.0 37.22916966383364 3.3067884154916993 8.183598549213684 0 0 0
118 118 1 0.0 4.29567369 0.8267027899999998 1.1690000000000005 0 0 0
119 119 1 0.0 2.8637824599999986 1.6534055799999996 3.507268589999999 0 0 0
120 120 1 0.0 2.86378246 0.0 5.845537180000004 0 0 0
121 121 1 0.0 4.295665307463019 0.826719079567826 8.183605235684752 0 0 0
1416 1416 1 0.0 35.7972808 2.4801083599999996 5.845537180000004 0 0 0
1415 1415 1 0.0 35.79728080000001 4.133513939999999 3.507268589999999 0 0 0
1414 1414 1 0.0 37.22917203 3.3068111499999993 1.1690000000000005 0 0 0
127 127 1 0.0 5.727564930000001 3.3068111499999993 1.1690000000000005 0 0 0
128 128 1 0.0 4.2956737 4.133513939999999 3.507268589999999 0 0 0
129 129 1 0.0 4.295673699999999 2.4801083599999996 5.845537180000004 0 0 0
130 130 1 0.0 5.727570264250157 3.306814188467728 8.18361516499268 0 0 0
1408 1408 1 0.0 35.797281430590346 0.826702948227134 8.183611551834638 0 0 0
1407 1407 1 0.0 34.36538957 0.0 5.845537180000004 0 0 0
1406 1406 1 0.0 34.36538957 1.6534055799999996 3.507268589999999 0 0 0
136 136 1 0.0 7.15945616 5.786919519999999 1.1690000000000005 0 0 0
137 137 1 0.0 5.72756493 6.6136223099999984 3.507268589999999 0 0 0
138 138 1 0.0 5.72756493 4.960216729999999 5.845537180000004 0 0 0
139 139 1 0.0 7.1594690029789 5.786903661394258 8.18360991080711 0 0 0
1405 1405 1 0.0 35.7972808 0.8267027899999998 1.1690000000000005 0 0 0
1345 1345 1 0.0 41.524869554161455 15.70734617518167 8.1835420644783 0 0 0
1344 1344 1 0.0 40.09295449 14.880650189999997 5.845537180000004 0 0 0
145 145 1 0.0 8.59134739 8.267027879999999 1.1690000000000005 0 0 0
146 146 1 0.0 7.159456159999988 9.093730669999998 3.507268589999999 0 0 0
147 147 1 0.0 7.159456159999994 7.440325089999998 5.845537180000004 0 0 0
148 148 1 0.0 8.591364730602463 8.267008694387041 8.183597099683801 0 0 0
1342 1342 1 0.0 41.52484572 15.707352979999992 1.1690000000000005 0 0 0
1336 1336 1 0.0 40.09297403316151 13.227233591019251 8.183537172159873 0 0 0
1335 1335 1 0.0 38.66106325999999 12.400541819999997 5.845537180000004 0 0 0
154 154 1 0.0 10.02323862 10.747136249999999 1.1690000000000005 0 0 0
155 155 1 0.0 8.591347389999996 11.573839039999998 3.507268589999999 0 0 0
156 156 1 0.0 8.59134739 9.920433459999998 5.845537180000004 0 0 0
157 157 1 0.0 10.023258164374129 10.747126290611366 8.183596569191039 0 0 0
1334 1334 1 0.0 38.66106325999999 14.053947399999997 3.507268589999999 0 0 0
1333 1333 1 0.0 40.09295449 13.227244609999996 1.1690000000000005 0 0 0
1327 1327 1 0.0 38.661074762904484 10.747114112611246 8.18352819497068 0 0 0
163 163 1 0.0 11.455129849999997 13.227244609999996 1.1690000000000005 0 0 0
164 164 1 0.0 10.023238619999995 14.053947399999997 3.507268589999999 0 0 0
165 165 1 0.0 10.023238619999995 12.400541819999997 5.845537180000004 0 0 0
166 166 1 0.0 11.455145302618881 13.227238846474314 8.18360604311557 0 0 0
1326 1326 1 0.0 37.22917203 9.920433459999998 5.845537180000004 0 0 0
1325 1325 1 0.0 37.22917203 11.573839039999998 3.507268589999999 0 0 0
1324 1324 1 0.0 38.66106326 10.747136249999999 1.1690000000000005 0 0 0
172 172 1 0.0 12.887021089999998 15.707352979999992 1.1690000000000005 0 0 0
174 174 1 0.0 11.45512986 14.880650189999997 5.845537180000004 0 0 0
175 175 1 0.0 12.887029433151689 15.707344319780654 8.183606688044229 0 0 0
1318 1318 1 0.0 37.229169074832846 8.266990167595731 8.183535464068747 0 0 0
1317 1317 1 0.0 35.7972808 7.440325089999998 5.845537180000004 0 0 0
235 235 1 0.0 7.15945616 0.8267027899999998 1.1690000000000005 0 0 0
236 236 1 0.0 5.72756493 1.6534055799999996 3.507268589999999 0 0 0
237 237 1 0.0 5.727564930000001 0.0 5.845537180000004 0 0 0
238 238 1 0.0 7.159441508590906 0.8267389080602016 8.183592335693781 0 0 0
1316 1316 1 0.0 35.7972808 9.093730669999998 3.507268589999999 0 0 0
1315 1315 1 0.0 37.22917203 8.267027879999999 1.1690000000000005 0 0 0
1309 1309 1 0.0 35.797265162315526 5.7868809841005815 8.183571908201248 0 0 0
244 244 1 0.0 8.59134739 3.3068111499999993 1.1690000000000005 0 0 0
245 245 1 0.0 7.15945616 4.133513939999999 3.507268589999999 0 0 0
246 246 1 0.0 7.15945616 2.4801083599999996 5.845537180000004 0 0 0
247 247 1 0.0 8.591340102344766 3.306830145395993 8.183609940266635 0 0 0
1308 1308 1 0.0 34.36538957 4.960216729999999 5.845537180000004 0 0 0
1307 1307 1 0.0 34.36538957 6.6136223099999984 3.507268589999999 0 0 0
1306 1306 1 0.0 35.79728080000001 5.786919519999999 1.1690000000000005 0 0 0
253 253 1 0.0 10.02323862 5.786919519999999 1.1690000000000005 0 0 0
254 254 1 0.0 8.59134739 6.6136223099999984 3.507268589999999 0 0 0
255 255 1 0.0 8.59134739 4.960216729999999 5.845537180000004 0 0 0
256 256 1 0.0 10.023235764064445 5.786917841405659 8.183601903788272 0 0 0
1300 1300 1 0.0 34.365377048037274 3.3067977290982893 8.183608025124517 0 0 0
1299 1299 1 0.0 32.93349833 2.4801083599999996 5.845537180000004 0 0 0
1298 1298 1 0.0 32.93349833 4.133513939999999 3.507268589999999 0 0 0
262 262 1 0.0 11.45512985 8.267027879999999 1.1690000000000005 0 0 0
263 263 1 0.0 10.023238619999994 9.093730669999998 3.507268589999999 0 0 0
264 264 1 0.0 10.023238619999994 7.440325089999998 5.845537180000004 0 0 0
265 265 1 0.0 11.455129454257762 8.267021820402897 8.183589444094839 0 0 0
1297 1297 1 0.0 34.36538956 3.3068111499999993 1.1690000000000005 0 0 0
1291 1291 1 0.0 32.93350418730717 0.8267212040378222 8.183603220939304 0 0 0
1290 1290 1 0.0 31.5016071 0.0 5.845537180000004 0 0 0
271 271 1 0.0 12.887021090000001 10.747136249999999 1.1690000000000005 0 0 0
272 272 1 0.0 11.45512986 11.573839039999998 3.507268589999999 0 0 0
273 273 1 0.0 11.45512986 9.920433459999998 5.845537180000004 0 0 0
274 274 1 0.0 12.887016869407198 10.747135790906828 8.18359158237832 0 0 0
1289 1289 1 0.0 31.5016071 1.6534055799999996 3.507268589999999 0 0 0
1288 1288 1 0.0 32.93349833 0.8267027899999998 1.1690000000000005 0 0 0
1228 1228 1 0.0 38.66107207053213 15.707349898870577 8.183540135398207 0 0 0
280 280 1 0.0 14.31891232 13.227244609999996 1.1690000000000005 0 0 0
281 281 1 0.0 12.887021089999998 14.053947399999997 3.507268589999999 0 0 0
282 282 1 0.0 12.887021089999998 12.400541819999997 5.845537180000004 0 0 0
283 283 1 0.0 14.318900903811393 13.227246151134398 8.183595150604567 0 0 0
1227 1227 1 0.0 37.22917203 14.880650189999997 5.845537180000004 0 0 0
1225 1225 1 0.0 38.66106325999999 15.707352979999992 1.1690000000000005 0 0 0
1219 1219 1 0.0 37.229172771893296 13.2272351738921 8.183533288336186 0 0 0
289 289 1 0.0 15.75080355 15.707352979999992 1.1690000000000005 0 0 0
291 291 1 0.0 14.31891232 14.880650189999997 5.845537180000004 0 0 0
292 292 1 0.0 15.750791979668007 15.707355481038999 8.183586684944665 0 0 0
1218 1218 1 0.0 35.7972808 12.400541819999997 5.845537180000004 0 0 0
1217 1217 1 0.0 35.7972808 14.053947399999997 3.507268589999999 0 0 0
352 352 1 0.0 10.02323862 0.8267027899999998 1.1690000000000005 0 0 0
353 353 1 0.0 8.59134739 1.6534055799999996 3.507268589999999 0 0 0
354 354 1 0.0 8.59134739 0.0 5.845537180000004 0 0 0
355 355 1 0.0 10.023226281722675 0.8267466196184822 8.183582082380056 0 0 0
1216 1216 1 0.0 37.22917202999998 13.227244609999996 1.1690000000000005 0 0 0
1210 1210 1 0.0 35.79726715688286 10.747111878378467 8.183532998390753 0 0 0
1209 1209 1 0.0 34.36538956999999 9.920433459999998 5.845537180000004 0 0 0
361 361 1 0.0 11.45512985 3.3068111499999993 1.1690000000000005 0 0 0
362 362 1 0.0 10.02323862 4.133513939999999 3.507268589999999 0 0 0
363 363 1 0.0 10.02323862 2.4801083599999996 5.845537180000004 0 0 0
364 364 1 0.0 11.455121895148178 3.3068357236134087 8.183597115263087 0 0 0
1208 1208 1 0.0 34.36538956999999 11.573839039999998 3.507268589999999 0 0 0
1207 1207 1 0.0 35.7972808 10.747136249999999 1.1690000000000005 0 0 0
1201 1201 1 0.0 34.3653634720726 8.266988705149117 8.183558237838668 0 0 0
370 370 1 0.0 12.88702109 5.786919519999999 1.1690000000000005 0 0 0
371 371 1 0.0 11.45512986 6.6136223099999984 3.507268589999999 0 0 0
372 372 1 0.0 11.45512986 4.960216729999999 5.845537180000004 0 0 0
373 373 1 0.0 12.887015625419721 5.786922183834329 8.183589432974763 0 0 0
1200 1200 1 0.0 32.93349833 7.440325089999998 5.845537180000004 0 0 0
1199 1199 1 0.0 32.93349833 9.093730669999998 3.507268589999999 0 0 0
1198 1198 1 0.0 34.36538956 8.267027879999999 1.1690000000000005 0 0 0
379 379 1 0.0 14.31891232 8.267027879999999 1.1690000000000005 0 0 0
380 380 1 0.0 12.887021089999998 9.093730669999998 3.507268589999999 0 0 0
381 381 1 0.0 12.88702109 7.440325089999998 5.845537180000004 0 0 0
382 382 1 0.0 14.318903235221445 8.267022652150846 8.183579790361478 0 0 0
1192 1192 1 0.0 32.933475699167964 5.78688845224963 8.183599877957988 0 0 0
1191 1191 1 0.0 31.5016071 4.960216729999999 5.845537180000004 0 0 0
1190 1190 1 0.0 31.5016071 6.6136223099999984 3.507268589999999 0 0 0
388 388 1 0.0 15.75080355 10.747136249999999 1.1690000000000005 0 0 0
389 389 1 0.0 14.31891232 11.573839039999998 3.507268589999999 0 0 0
390 390 1 0.0 14.31891232 9.920433459999998 5.845537180000004 0 0 0
391 391 1 0.0 15.750787310582496 10.747134524454294 8.18357625095085 0 0 0
1189 1189 1 0.0 32.93349833 5.786919519999999 1.1690000000000005 0 0 0
1183 1183 1 0.0 31.501603065224767 3.3068140662709555 8.183618064545641 0 0 0
1182 1182 1 0.0 30.069715869999996 2.4801083599999996 5.845537180000004 0 0 0
397 397 1 0.0 17.18269478 13.227244609999996 1.1690000000000005 0 0 0
398 398 1 0.0 15.75080355 14.053947399999997 3.507268589999999 0 0 0
399 399 1 0.0 15.750803549999992 12.400541819999997 5.845537180000004 0 0 0
400 400 1 0.0 17.182678168943244 13.227248668157076 8.183570641832002 0 0 0
1181 1181 1 0.0 30.069715869999996 4.133513939999999 3.507268589999999 0 0 0
1180 1180 1 0.0 31.5016071 3.3068111499999993 1.1690000000000005 0 0 0
1174 1174 1 0.0 30.069727341611042 0.8267361657239739 8.183593240937974 0 0 0
406 406 1 0.0 18.614586009999996 15.707352979999992 1.1690000000000005 0 0 0
408 408 1 0.0 17.18269478 14.880650189999997 5.845537180000004 0 0 0
409 409 1 0.0 18.614576520002565 15.70736236410144 8.18356650425639 0 0 0
1173 1173 1 0.0 28.63782464 0.0 5.845537180000004 0 0 0
1172 1172 1 0.0 28.63782464 1.6534055799999996 3.507268589999999 0 0 0
469 469 1 0.0 12.88702109 0.8267027899999998 1.1690000000000005 0 0 0
470 470 1 0.0 11.45512986 1.6534055799999996 3.507268589999999 0 0 0
471 471 1 0.0 11.455129860000001 0.0 5.845537180000004 0 0 0
472 472 1 0.0 12.887019890002007 0.8267453305132155 8.183581193275732 0 0 0
1171 1171 1 0.0 30.069715869999996 0.8267027899999998 1.1690000000000005 0 0 0
1111 1111 1 0.0 35.797279504891684 15.707346425837768 8.183540583860601 0 0 0
1110 1110 1 0.0 34.36538957 14.880650189999997 5.845537180000004 0 0 0
478 478 1 0.0 14.318912320000004 3.3068111499999993 1.1690000000000005 0 0 0
479 479 1 0.0 12.88702109 4.133513939999999 3.507268589999999 0 0 0
480 480 1 0.0 12.88702109 2.4801083599999996 5.845537180000004 0 0 0
481 481 1 0.0 14.31891344543642 3.306833020777188 8.183596556248926 0 0 0
1108 1108 1 0.0 35.7972808 15.707352979999992 1.1690000000000005 0 0 0
1102 1102 1 0.0 34.36537388546303 13.227227944726138 8.183542368572006 0 0 0
1101 1101 1 0.0 32.93349833 12.400541819999997 5.845537180000004 0 0 0
487 487 1 0.0 15.75080355 5.786919519999999 1.1690000000000005 0 0 0
488 488 1 0.0 14.31891232 6.6136223099999984 3.507268589999999 0 0 0
489 489 1 0.0 14.31891232 4.960216729999999 5.845537180000004 0 0 0
490 490 1 0.0 15.750801025105327 5.786916081486611 8.183591538864938 0 0 0
1100 1100 1 0.0 32.93349833 14.053947399999997 3.507268589999999 0 0 0
1099 1099 1 0.0 34.36538956 13.227244609999996 1.1690000000000005 0 0 0
1093 1093 1 0.0 32.9334703247012 10.7471055603014 8.183559770478738 0 0 0
496 496 1 0.0 17.18269478 8.267027879999999 1.1690000000000005 0 0 0
497 497 1 0.0 15.750803549999992 9.093730669999998 3.507268589999999 0 0 0
498 498 1 0.0 15.750803549999992 7.440325089999998 5.845537180000004 0 0 0
499 499 1 0.0 17.182685148775217 8.267014706233864 8.183576220005229 0 0 0
1092 1092 1 0.0 31.5016071 9.920433459999998 5.845537180000004 0 0 0
1091 1091 1 0.0 31.5016071 11.573839039999998 3.507268589999999 0 0 0
1090 1090 1 0.0 32.933498330000006 10.747136249999999 1.1690000000000005 0 0 0
505 505 1 0.0 18.61458601 10.747136249999999 1.1690000000000005 0 0 0
506 506 1 0.0 17.18269478 11.573839039999998 3.507268589999999 0 0 0
507 507 1 0.0 17.18269478 9.920433459999998 5.845537180000004 0 0 0
508 508 1 0.0 18.614575947863106 10.747130459460116 8.18356350535197 0 0 0
1084 1084 1 0.0 31.501582779379962 8.266991412256857 8.183589731646556 0 0 0
1083 1083 1 0.0 30.069715869999996 7.440325089999998 5.845537180000004 0 0 0
1082 1082 1 0.0 30.069715869999996 9.093730669999998 3.507268589999999 0 0 0
514 514 1 0.0 20.04647724 13.227244609999996 1.1690000000000005 0 0 0
515 515 1 0.0 18.614586009999993 14.053947399999997 3.507268589999999 0 0 0
516 516 1 0.0 18.614586009999993 12.400541819999997 5.845537180000004 0 0 0
517 517 1 0.0 20.046474250647265 13.227248939745202 8.183562087435043 0 0 0
1081 1081 1 0.0 31.501607100000005 8.267027879999999 1.1690000000000005 0 0 0
1075 1075 1 0.0 30.069710385859644 5.786899916084763 8.18361304497305 0 0 0
1074 1074 1 0.0 28.63782464000001 4.960216729999999 5.845537180000004 0 0 0
523 523 1 0.0 21.47836848 15.707352979999992 1.1690000000000005 0 0 0
525 525 1 0.0 20.046477249999995 14.880650189999997 5.845537180000004 0 0 0
526 526 1 0.0 21.478365839839043 15.707358876409822 8.183573095375902 0 0 0
1073 1073 1 0.0 28.63782464000001 6.6136223099999984 3.507268589999999 0 0 0
1072 1072 1 0.0 30.069715869999996 5.786919519999999 1.1690000000000005 0 0 0
586 586 1 0.0 15.75080355 0.8267027899999998 1.1690000000000005 0 0 0
587 587 1 0.0 14.31891232 1.6534055799999996 3.507268589999999 0 0 0
588 588 1 0.0 14.31891232 0.0 5.845537180000004 0 0 0
589 589 1 0.0 15.750810135918565 0.8267430020352939 8.18358837719176 0 0 0
1066 1066 1 0.0 28.63783475526645 3.3068239254925533 8.183611231906891 0 0 0
1065 1065 1 0.0 27.20593341 2.4801083599999996 5.845537180000004 0 0 0
1064 1064 1 0.0 27.20593340999999 4.133513939999999 3.507268589999999 0 0 0
595 595 1 0.0 17.18269478 3.3068111499999993 1.1690000000000005 0 0 0
596 596 1 0.0 15.750803550000002 4.133513939999999 3.507268589999999 0 0 0
597 597 1 0.0 15.75080355 2.4801083599999996 5.845537180000004 0 0 0
598 598 1 0.0 17.18269750518979 3.3068273730411177 8.183606023169961 0 0 0
1063 1063 1 0.0 28.63782464000001 3.3068111499999993 1.1690000000000005 0 0 0
1057 1057 1 0.0 27.205943360442774 0.8267372090036202 8.183588020397103 0 0 0
1056 1056 1 0.0 25.774042170000005 0.0 5.845537180000004 0 0 0
604 604 1 0.0 18.614586009999996 5.786919519999999 1.1690000000000005 0 0 0
605 605 1 0.0 17.18269478 6.6136223099999984 3.507268589999999 0 0 0
606 606 1 0.0 17.18269478 4.960216729999999 5.845537180000004 0 0 0
607 607 1 0.0 18.614581631725517 5.7869088426827915 8.183595098981296 0 0 0
1055 1055 1 0.0 25.774042170000005 1.6534055799999996 3.507268589999999 0 0 0
1054 1054 1 0.0 27.20593339999999 0.8267027899999998 1.1690000000000005 0 0 0
994 994 1 0.0 32.933482396861784 15.707338274160621 8.183542073005494 0 0 0
613 613 1 0.0 20.04647724 8.267027879999999 1.1690000000000005 0 0 0
614 614 1 0.0 18.614586009999996 9.093730669999998 3.507268589999999 0 0 0
615 615 1 0.0 18.614586009999996 7.440325089999998 5.845537180000004 0 0 0
616 616 1 0.0 20.046472443827675 8.267011485194539 8.18357060323099 0 0 0
993 993 1 0.0 31.5016071 14.880650189999997 5.845537180000004 0 0 0
991 991 1 0.0 32.93349833 15.707352979999992 1.1690000000000005 0 0 0
985 985 1 0.0 31.50157878786971 13.227220961089 8.183561435208524 0 0 0
622 622 1 0.0 21.47836848 10.747136249999999 1.1690000000000005 0 0 0
623 623 1 0.0 20.04647724999999 11.573839039999998 3.507268589999999 0 0 0
624 624 1 0.0 20.04647724999999 9.920433459999998 5.845537180000004 0 0 0
625 625 1 0.0 21.47837072084363 10.747131518462309 8.183562082478648 0 0 0
984 984 1 0.0 30.069715869999996 12.400541819999997 5.845537180000004 0 0 0
983 983 1 0.0 30.069715869999996 14.053947399999997 3.507268589999999 0 0 0
982 982 1 0.0 31.5016071 13.227244609999996 1.1690000000000005 0 0 0
631 631 1 0.0 22.91025971 13.227244609999996 1.1690000000000005 0 0 0
632 632 1 0.0 21.47836848 14.053947399999997 3.507268589999999 0 0 0
633 633 1 0.0 21.47836848 12.400541819999997 5.845537180000004 0 0 0
634 634 1 0.0 22.910262469168337 13.227246214478823 8.183575833112538 0 0 0
976 976 1 0.0 30.06969115153675 10.74710785073321 8.183583298795263 0 0 0
975 975 1 0.0 28.63782464 9.920433459999998 5.845537180000004 0 0 0
974 974 1 0.0 28.63782464 11.573839039999998 3.507268589999999 0 0 0
640 640 1 0.0 24.34215094 15.707352979999992 1.1690000000000005 0 0 0
642 642 1 0.0 22.910259709999995 14.880650189999997 5.845537180000004 0 0 0
643 643 1 0.0 24.34213867916204 15.707347224572857 8.18358910709788 0 0 0
973 973 1 0.0 30.06971587 10.747136249999999 1.1690000000000005 0 0 0
967 967 1 0.0 28.637818648358067 8.267002531425627 8.183594653970346 0 0 0
703 703 1 0.0 18.61458601 0.8267027899999998 1.1690000000000005 0 0 0
704 704 1 0.0 17.18269478 1.6534055799999996 3.507268589999999 0 0 0
705 705 1 0.0 17.18269478 0.0 5.845537180000004 0 0 0
706 706 1 0.0 18.614589756949847 0.8267397466304941 8.183595199023014 0 0 0
966 966 1 0.0 27.20593341 7.440325089999998 5.845537180000004 0 0 0
965 965 1 0.0 27.20593341 9.093730669999998 3.507268589999999 0 0 0
964 964 1 0.0 28.637824640000005 8.267027879999999 1.1690000000000005 0 0 0
712 712 1 0.0 20.04647724 3.3068111499999993 1.1690000000000005 0 0 0
713 713 1 0.0 18.61458601 4.133513939999999 3.507268589999999 0 0 0
714 714 1 0.0 18.61458601 2.4801083599999996 5.845537180000004 0 0 0
715 715 1 0.0 20.04647392515134 3.3068226613238245 8.183606669443485 0 0 0
958 958 1 0.0 27.205942984706674 5.786909240680716 8.183597857711622 0 0 0
957 957 1 0.0 25.774042170000005 4.960216729999999 5.845537180000004 0 0 0
956 956 1 0.0 25.774042170000005 6.6136223099999984 3.507268589999999 0 0 0
721 721 1 0.0 21.47836848 5.786919519999999 1.1690000000000005 0 0 0
722 722 1 0.0 20.04647724999999 6.6136223099999984 3.507268589999999 0 0 0
723 723 1 0.0 20.04647724999999 4.960216729999999 5.845537180000004 0 0 0
724 724 1 0.0 21.478364864631985 5.786908218691884 8.183586638943314 0 0 0
955 955 1 0.0 27.2059334 5.786919519999999 1.1690000000000005 0 0 0
949 949 1 0.0 25.77405165883257 3.3068241514703813 8.183597794016748 0 0 0
948 948 1 0.0 24.34215094 2.4801083599999996 5.845537180000004 0 0 0
730 730 1 0.0 22.91025971 8.267027879999999 1.1690000000000005 0 0 0
731 731 1 0.0 21.47836848 9.093730669999998 3.507268589999999 0 0 0
732 732 1 0.0 21.47836848 7.440325089999998 5.845537180000004 0 0 0
733 733 1 0.0 22.910263095952992 8.267014978173085 8.183566472526046 0 0 0
947 947 1 0.0 24.34215094 4.133513939999999 3.507268589999999 0 0 0
946 946 1 0.0 25.774042170000005 3.3068111499999993 1.1690000000000005 0 0 0
940 940 1 0.0 24.34215308303841 0.826733169615923 8.18359012728886 0 0 0
739 739 1 0.0 24.34215094 10.747136249999999 1.1690000000000005 0 0 0
740 740 1 0.0 22.910259709999995 11.573839039999998 3.507268589999999 0 0 0
741 741 1 0.0 22.910259709999995 9.920433459999998 5.845537180000004 0 0 0
742 742 1 0.0 24.342154735241714 10.747131035477478 8.18357309274402 0 0 0
939 939 1 0.0 22.910259709999995 0.0 5.845537180000004 0 0 0
938 938 1 0.0 22.910259709999995 1.6534055799999996 3.507268589999999 0 0 0
937 937 1 0.0 24.342150939999986 0.8267027899999998 1.1690000000000005 0 0 0
748 748 1 0.0 25.77404217 13.227244609999996 1.1690000000000005 0 0 0
749 749 1 0.0 24.342150939999996 14.053947399999997 3.507268589999999 0 0 0
750 750 1 0.0 24.342150939999996 12.400541819999997 5.845537180000004 0 0 0
751 751 1 0.0 25.774031064950144 13.227236875807183 8.183589109678032 0 0 0
877 877 1 0.0 30.06968486209201 15.707332778325789 8.183558509888794 0 0 0
876 876 1 0.0 28.63782464 14.880650189999997 5.845537180000004 0 0 0
874 874 1 0.0 30.069715869999996 15.707352979999992 1.1690000000000005 0 0 0
757 757 1 0.0 27.2059334 15.707352979999992 1.1690000000000005 0 0 0
759 759 1 0.0 25.77404217 14.880650189999997 5.845537180000004 0 0 0
760 760 1 0.0 27.205903984783724 15.707335986225418 8.183583187000544 0 0 0
868 868 1 0.0 28.637797089898495 13.227224856309832 8.183582459492825 0 0 0
867 867 1 0.0 27.20593341 12.400541819999997 5.845537180000004 0 0 0
820 820 1 0.0 21.47836848 0.8267027899999998 1.1690000000000005 0 0 0
821 821 1 0.0 20.04647725 1.6534055799999996 3.507268589999999 0 0 0
822 822 1 0.0 20.04647725 0.0 5.845537180000004 0 0 0
823 823 1 0.0 21.478367275130424 0.8267346309034983 8.18359506706145 0 0 0
866 866 1 0.0 27.20593341 14.053947399999997 3.507268589999999 0 0 0
865 865 1 0.0 28.637824640000005 13.227244609999996 1.1690000000000005 0 0 0
859 859 1 0.0 27.205924244626864 10.747120703877725 8.183585912410269 0 0 0
829 829 1 0.0 22.91025971 3.3068111499999993 1.1690000000000005 0 0 0
830 830 1 0.0 21.47836848 4.133513939999999 3.507268589999999 0 0 0
831 831 1 0.0 21.47836848 2.4801083599999996 5.845537180000004 0 0 0
832 832 1 0.0 22.910258510932298 3.306821660251477 8.183597643246685 0 0 0
858 858 1 0.0 25.77404217 9.920433459999998 5.845537180000004 0 0 0
857 857 1 0.0 25.77404217 11.573839039999998 3.507268589999999 0 0 0
856 856 1 0.0 27.2059334 10.747136249999999 1.1690000000000005 0 0 0
838 838 1 0.0 24.34215094 5.786919519999999 1.1690000000000005 0 0 0
839 839 1 0.0 22.91025971 6.6136223099999984 3.507268589999999 0 0 0
840 840 1 0.0 22.91025971 4.960216729999999 5.845537180000004 0 0 0
841 841 1 0.0 24.34215683813013 5.786911169435962 8.183582289792312 0 0 0
850 850 1 0.0 25.77404823161688 8.267013644216105 8.183577317500003 0 0 0
849 849 1 0.0 24.342150939999996 7.440325089999998 5.845537180000004 0 0 0
848 848 1 0.0 24.342150939999996 9.093730669999998 3.507268589999999 0 0 0
847 847 1 0.0 25.77404217 8.267027879999999 1.1690000000000005 0 0 0
8 8 1 0.0 37.229154030192696 1.6535271517612302 17.528412480053518 -1 0 0
844 844 1 0.0 24.342131003642475 5.786895619453236 15.197772864232284 0 0 0
17 17 1 0.0 38.66120542487109 4.133639258312199 17.528511774144953 -1 0 0
18 18 1 0.0 38.66107461976668 2.4804349976239766 19.86180469292224 -1 0 0
26 26 1 0.0 40.093004851168814 6.613601897440572 17.528381407272544 -1 0 0
27 27 1 0.0 40.09276776395546 4.960846566536103 19.862539349121697 -1 0 0
35 35 1 0.0 41.524662373916456 9.09369285460558 17.52805092291355 -1 0 0
36 36 1 0.0 41.52431439448614 7.440908993373176 19.862043398155276 -1 0 0
44 44 1 0.0 42.95654232669377 11.573911484690832 17.527965824341614 -1 0 0
45 45 1 0.0 42.95599119004516 9.920678885610508 19.861068004012267 -1 0 0
53 53 1 0.0 44.3886548200562 14.054002499401445 17.528284445487543 -1 0 0
54 54 1 0.0 44.38795633738256 12.40046263762552 19.861291812374795 -1 0 0
63 63 1 0.0 45.82013085989008 14.880534630783599 19.86232758122028 -1 0 0
125 125 1 0.0 2.864033554852581 1.6535506061392728 17.528912108183583 0 0 0
843 843 1 0.0 22.910233345715525 4.9601957975271915 12.860068931777043 0 0 0
134 134 1 0.0 4.2958293582084295 4.133517130918417 17.52957186358044 0 0 0
135 135 1 0.0 4.295756873388333 2.4801573396578 19.863629594931936 0 0 0
143 143 1 0.0 5.727487074370201 6.613405256741969 17.529175492216172 0 0 0
144 144 1 0.0 5.727315533372529 4.960488442665296 19.86417034696835 0 0 0
152 152 1 0.0 7.159364053497654 9.09362642409465 17.52835743408257 0 0 0
153 153 1 0.0 7.159005508236925 7.440630850543478 19.862468205380427 0 0 0
161 161 1 0.0 8.59147412426829 11.573982929388562 17.528526861726927 0 0 0
162 162 1 0.0 8.590962788125724 9.920566451411876 19.861488721070003 0 0 0
170 170 1 0.0 10.023470756612273 14.054008853367352 17.529387629377524 0 0 0
171 171 1 0.0 10.02311762355557 12.400475744999364 19.86294275292463 0 0 0
180 180 1 0.0 11.455255085878445 14.880539443292612 19.864235840426247 0 0 0
242 242 1 0.0 5.727645703684141 1.6535387289464536 17.529573364858834 0 0 0
851 851 1 0.0 24.34216482431807 9.09371779386683 10.521751338966759 0 0 0
251 251 1 0.0 7.159302467289032 4.133424993406551 17.529950960222376 0 0 0
252 252 1 0.0 7.159566156314833 2.4797578356321432 19.864173024022218 0 0 0
260 260 1 0.0 8.591177861090266 6.6134423286746316 17.529047083538593 0 0 0
261 261 1 0.0 8.591267871979063 4.960171539485547 19.86348513082731 0 0 0
269 269 1 0.0 10.023290528534002 9.093807660419492 17.528475382665984 0 0 0
270 270 1 0.0 10.023238508592058 7.440477179825736 19.86173578866266 0 0 0
278 278 1 0.0 11.455285825420825 11.574100509991931 17.52920271418164 0 0 0
279 279 1 0.0 11.455392788505087 9.920532571487483 19.862000098424318 0 0 0
287 287 1 0.0 12.887032723414858 14.053976797654279 17.52986911511369 0 0 0
288 288 1 0.0 12.887512866692514 12.40042461898343 19.863747332498622 0 0 0
297 297 1 0.0 14.319407706109406 14.880331354637315 19.863829304053418 0 0 0
359 359 1 0.0 8.591120461558011 1.653446744244739 17.52917788227114 0 0 0
852 852 1 0.0 24.342169462173505 7.440297728274471 12.85995144337133 0 0 0
368 368 1 0.0 10.022997949455288 4.133456924622706 17.529047942517266 0 0 0
369 369 1 0.0 10.02327824227488 2.47956612719494 19.862471240308096 0 0 0
377 377 1 0.0 11.455114281281599 6.613613378488271 17.52837865791266 0 0 0
378 378 1 0.0 11.455261645594954 4.960141278244721 19.861736065780118 0 0 0
386 386 1 0.0 12.887116390557853 9.093918861103377 17.52837073011173 0 0 0
387 387 1 0.0 12.887436193506677 7.440564644954932 19.861213789731295 0 0 0
395 395 1 0.0 14.318859870970872 11.574061038348146 17.52891783919018 0 0 0
396 396 1 0.0 14.319563881316714 9.920604500784687 19.8618004139784 0 0 0
404 404 1 0.0 15.750620419830707 14.053939260749594 17.528903930471657 0 0 0
405 405 1 0.0 15.751446004568646 12.400346561943008 19.862337321140227 0 0 0
414 414 1 0.0 17.18308069396855 14.880082396940178 19.86179629356557 0 0 0
476 476 1 0.0 11.454993269636924 1.6533781265261474 17.528358746589472 0 0 0
853 853 1 0.0 25.774051712890316 8.267034104301246 15.197735908044155 0 0 0
485 485 1 0.0 12.887113458976172 4.133520340745769 17.528475133624184 0 0 0
486 486 1 0.0 12.88694471530209 2.479709375133347 19.861489206300288 0 0 0
494 494 1 0.0 14.319122682078696 6.613610978046755 17.52836961875209 0 0 0