LAMMPS data file via write_data, version 24 Dec 2020, timestep = 4794

4392 atoms
4 atom types

0 37.22917202947173 xlo xhi
0 32.24140873938357 ylo yhi
-10 70 zlo zhi
18.614586014735863 0 0 xy xz yz

Masses

1 26.982
2 12.01
3 12.01
4 12.01

Atoms # full

1 1 1 0 1.4318912299999993 0.8267027899999998 1.1690000000000005 0 0 0
3 3 1 0 0 0 5.845537180000004 0 0 0
4 4 1 0 1.4318919887836712 0.8267032318518046 8.183604082858992 0 0 0
741 741 1 0 22.910259709999995 9.920433459999998 5.845537180000004 0 0 0
10 10 1 0 2.86378246 3.3068111499999993 1.1690000000000005 0 0 0
12 12 1 0 1.4318912299999973 2.4801083599999996 5.845537180000004 0 0 0
13 13 1 0 2.8637986400010753 3.3068059255123634 8.183600618900694 0 0 0
733 733 1 0 22.910303902213855 8.266999853978108 8.183567063523302 0 0 0
19 19 1 0 4.29567369 5.786919519999999 1.1690000000000005 0 0 0
22 22 1 0 4.295711964075718 5.786901207164663 8.183595102773523 0 0 0
28 28 1 0 5.727564930000001 8.267027879999999 1.1690000000000005 0 0 0
30 30 1 0 4.295673699999993 7.440325089999998 5.845537180000004 0 0 0
31 31 1 0 5.727612884889243 8.26700039993528 8.18359230062574 0 0 0
732 732 1 0 21.47836848 7.440325089999998 5.845537180000004 0 0 0
39 39 1 0 5.72756493 9.920433459999998 5.845537180000004 0 0 0
731 731 1 0 21.47836848 9.093730669999998 3.507268589999999 0 0 0
118 118 1 0 4.29567369 0.8267027899999998 1.1690000000000005 0 0 0
119 119 1 0 2.8637824599999986 1.6534055799999996 3.507268589999999 0 0 0
120 120 1 0 2.86378246 0 5.845537180000004 0 0 0
121 121 1 0 4.29567723890968 0.8267194268219343 8.183600607702711 0 0 0
730 730 1 0 22.91025971 8.267027879999999 1.1690000000000005 0 0 0
724 724 1 0 21.478394715822443 5.7868959023004845 8.183579269520102 0 0 0
127 127 1 0 5.727564930000001 3.3068111499999993 1.1690000000000005 0 0 0
128 128 1 0 4.2956737 4.133513939999999 3.507268589999999 0 0 0
129 129 1 0 4.295673699999999 2.4801083599999996 5.845537180000004 0 0 0
130 130 1 0 5.727590545046564 3.306825963621727 8.183617752641059 0 0 0
723 723 1 0 20.04647724999999 4.960216729999999 5.845537180000004 0 0 0
722 722 1 0 20.04647724999999 6.6136223099999984 3.507268589999999 0 0 0
136 136 1 0 7.15945616 5.786919519999999 1.1690000000000005 0 0 0
137 137 1 0 5.72756493 6.6136223099999984 3.507268589999999 0 0 0
138 138 1 0 5.72756493 4.960216729999999 5.845537180000004 0 0 0
139 139 1 0 7.1594914534659 5.786914092348223 8.18363355196491 0 0 0
721 721 1 0 21.47836848 5.786919519999999 1.1690000000000005 0 0 0
715 715 1 0 20.04648229705651 3.3068011473176893 8.183596532301095 0 0 0
145 145 1 0 8.59134739 8.267027879999999 1.1690000000000005 0 0 0
146 146 1 0 7.159456159999989 9.093730669999998 3.507268589999999 0 0 0
147 147 1 0 7.159456159999994 7.440325089999998 5.845537180000004 0 0 0
148 148 1 0 8.59137159675858 8.267001308429945 8.183634380472853 0 0 0
714 714 1 0 18.61458601 2.4801083599999996 5.845537180000004 0 0 0
713 713 1 0 18.61458601 4.133513939999999 3.507268589999999 0 0 0
156 156 1 0 8.59134739 9.920433459999998 5.845537180000004 0 0 0
712 712 1 0 20.04647724 3.3068111499999993 1.1690000000000005 0 0 0
235 235 1 0 7.15945616 0.8267027899999998 1.1690000000000005 0 0 0
236 236 1 0 5.72756493 1.6534055799999996 3.507268589999999 0 0 0
237 237 1 0 5.727564930000001 0 5.845537180000004 0 0 0
238 238 1 0 7.159459419922257 0.826745100863228 8.183595073564163 0 0 0
706 706 1 0 18.614584932126764 0.8267038125165906 8.183603958121836 0 0 0
705 705 1 0 17.18269478 0 5.845537180000004 0 0 0
244 244 1 0 8.59134739 3.3068111499999993 1.1690000000000005 0 0 0
245 245 1 0 7.15945616 4.133513939999999 3.507268589999999 0 0 0
246 246 1 0 7.15945616 2.4801083599999996 5.845537180000004 0 0 0
247 247 1 0 8.591360322828791 3.3068444613090997 8.183633532207189 0 0 0
704 704 1 0 17.18269478 1.6534055799999996 3.507268589999999 0 0 0
703 703 1 0 18.61458601 0.8267027899999998 1.1690000000000005 0 0 0
253 253 1 0 10.02323862 5.786919519999999 1.1690000000000005 0 0 0
254 254 1 0 8.59134739 6.6136223099999984 3.507268589999999 0 0 0
255 255 1 0 8.59134739 4.960216729999999 5.845537180000004 0 0 0
256 256 1 0 10.023240466177814 5.786920600455757 8.183652950268659 0 0 0
624 624 1 0 20.04647724999999 9.920433459999998 5.845537180000004 0 0 0
616 616 1 0 20.046486694286873 8.266999186587915 8.18353577392081 0 0 0
262 262 1 0 11.45512985 8.267027879999999 1.1690000000000005 0 0 0
263 263 1 0 10.023238619999994 9.093730669999998 3.507268589999999 0 0 0
264 264 1 0 10.023238619999994 7.440325089999998 5.845537180000004 0 0 0
265 265 1 0 11.455109414978734 8.267001354319614 8.183636571401529 0 0 0
615 615 1 0 18.614586009999996 7.440325089999998 5.845537180000004 0 0 0
614 614 1 0 18.614586009999996 9.093730669999998 3.507268589999999 0 0 0
273 273 1 0 11.45512986 9.920433459999998 5.845537180000004 0 0 0
613 613 1 0 20.04647724 8.267027879999999 1.1690000000000005 0 0 0
352 352 1 0 10.02323862 0.8267027899999998 1.1690000000000005 0 0 0
353 353 1 0 8.59134739 1.6534055799999996 3.507268589999999 0 0 0
354 354 1 0 8.59134739 0 5.845537180000004 0 0 0
355 355 1 0 10.023238798432942 0.8267580690835364 8.183592262414614 0 0 0
607 607 1 0 18.614574271334355 5.786893368280086 8.183571694147709 0 0 0
606 606 1 0 17.18269478 4.960216729999999 5.845537180000004 0 0 0
361 361 1 0 11.45512985 3.3068111499999993 1.1690000000000005 0 0 0
362 362 1 0 10.02323862 4.133513939999999 3.507268589999999 0 0 0
363 363 1 0 10.02323862 2.4801083599999996 5.845537180000004 0 0 0
364 364 1 0 11.45511894095632 3.3068454241983916 8.183634353470808 0 0 0
605 605 1 0 17.18269478 6.6136223099999984 3.507268589999999 0 0 0
604 604 1 0 18.614586009999996 5.786919519999999 1.1690000000000005 0 0 0
370 370 1 0 12.88702109 5.786919519999999 1.1690000000000005 0 0 0
371 371 1 0 11.45512986 6.6136223099999984 3.507268589999999 0 0 0
372 372 1 0 11.45512986 4.960216729999999 5.845537180000004 0 0 0
373 373 1 0 12.886987890657958 5.78691510110536 8.183636566920896 0 0 0
598 598 1 0 17.182676913814415 3.306807296303372 8.1836017982994 0 0 0
597 597 1 0 15.75080355 2.4801083599999996 5.845537180000004 0 0 0
379 379 1 0 14.31891232 8.267027879999999 1.1690000000000005 0 0 0
380 380 1 0 12.887021089999998 9.093730669999998 3.507268589999999 0 0 0
381 381 1 0 12.88702109 7.440325089999998 5.845537180000004 0 0 0
382 382 1 0 14.318864880607887 8.26700049750478 8.183596986294308 0 0 0
596 596 1 0 15.750803550000002 4.133513939999999 3.507268589999999 0 0 0
595 595 1 0 17.18269478 3.3068111499999993 1.1690000000000005 0 0 0
390 390 1 0 14.31891232 9.920433459999998 5.845537180000004 0 0 0
589 589 1 0 15.75079989540043 0.8267217111093096 8.183600120957387 0 0 0
469 469 1 0 12.88702109 0.8267027899999998 1.1690000000000005 0 0 0
470 470 1 0 11.45512986 1.6534055799999996 3.507268589999999 0 0 0
471 471 1 0 11.455129860000001 0 5.845537180000004 0 0 0
472 472 1 0 12.887018030636188 0.8267471138644786 8.183594639850078 0 0 0
588 588 1 0 14.31891232 0 5.845537180000004 0 0 0
587 587 1 0 14.31891232 1.6534055799999996 3.507268589999999 0 0 0
478 478 1 0 14.318912320000004 3.3068111499999993 1.1690000000000005 0 0 0
479 479 1 0 12.88702109 4.133513939999999 3.507268589999999 0 0 0
480 480 1 0 12.88702109 2.4801083599999996 5.845537180000004 0 0 0
481 481 1 0 14.318886983783553 3.3068280196118383 8.183619512827235 0 0 0
586 586 1 0 15.75080355 0.8267027899999998 1.1690000000000005 0 0 0
507 507 1 0 17.18269478 9.920433459999998 5.845537180000004 0 0 0
487 487 1 0 15.75080355 5.786919519999999 1.1690000000000005 0 0 0
488 488 1 0 14.31891232 6.6136223099999984 3.507268589999999 0 0 0
489 489 1 0 14.31891232 4.960216729999999 5.845537180000004 0 0 0
490 490 1 0 15.750763984120555 5.786902351575206 8.183598532237504 0 0 0
499 499 1 0 17.182661324553386 8.26699948559933 8.183549790880534 0 0 0
498 498 1 0 15.750803549999992 7.440325089999998 5.845537180000004 0 0 0
496 496 1 0 17.18269478 8.267027879999999 1.1690000000000005 0 0 0
497 497 1 0 15.750803549999992 9.093730669999998 3.507268589999999 0 0 0
157 157 1 0 10.023240545269013 10.747105867306248 8.183619528836644 0 0 0
274 274 1 0 12.886986420844629 10.747110559020804 8.183598530090116 0 0 0
40 40 1 0 7.159493012914167 10.7471114248371 8.183594668714733 0 0 0
625 625 1 0 21.4783958821035 10.747126978320502 8.18352509515218 0 0 0
742 742 1 0 24.342194328515788 10.747116822575125 8.183570504475732 0 0 0
391 391 1 0 15.750762226317784 10.747121456843548 8.183549783027345 0 0 0
508 508 1 0 18.61457374763566 10.747129149000965 8.183515388593662 0 0 0
7 7 1 0 1.4319018953302916 0.8267089462265297 15.197943125186054 0 0 0
492 492 1 0 14.318802766857495 4.960221355266512 12.860255827384496 0 0 0
16 16 1 0 2.8638561353742005 3.306826260598893 15.197961079778967 0 0 0
500 500 1 0 15.750723076718298 9.093684207049003 10.521733281206224 0 0 0
25 25 1 0 4.295814601126939 5.786891332289303 15.197989055230174 0 0 0
34 34 1 0 5.727719171360868 8.266941654681085 15.198002943099699 0 0 0
501 501 1 0 15.750679657294713 7.440260279560563 12.860029049752214 0 0 0
491 491 1 0 14.318831368291642 6.613591142416707 10.52187397284785 0 0 0
124 124 1 0 4.295723564021767 0.8267590668522485 15.197960975990881 0 0 0
125 125 1 0 2.8638475944292656 1.6534431538637435 17.52864681567491 0 0 0
473 473 1 0 11.455119080994827 1.6534946712421088 10.521862734509838 0 0 0
133 133 1 0 5.72768151556691 3.3068785239772525 15.19820516325224 0 0 0
134 134 1 0 4.295747364017477 4.133590747369471 17.528851811962202 0 0 0
135 135 1 0 4.295744838679612 2.480149152856731 19.862073743022506 0 0 0
142 142 1 0 7.159585764485844 5.786912673459398 15.198430431190584 0 0 0
143 143 1 0 5.727603649903492 6.613660377568642 17.529041229987293 0 0 0
144 144 1 0 5.727258285646675 4.960470214649214 19.86259955757834 0 0 0
151 151 1 0 8.591424961524163 8.266925815834966 15.198442273559394 0 0 0
152 152 1 0 7.159446193715415 9.093685517330668 17.52905122089453 0 0 0
153 153 1 0 7.158928915361322 7.440633552692196 19.862866394147332 0 0 0
162 162 1 0 8.590946905443685 9.920592779214868 19.862641346976517 0 0 0
241 241 1 0 7.159502136686817 0.8268389486532036 15.197988765448759 0 0 0
242 242 1 0 5.727668268517926 1.6534309518175847 17.528851592425454 0 0 0
590 590 1 0 14.31888729442838 1.653459473778885 10.521850315960656 0 0 0
250 250 1 0 8.591406200609123 3.306926913472855 15.198430246010606 0 0 0
251 251 1 0 7.1595238285386404 4.133553020578377 17.52941181742696 0 0 0
252 252 1 0 7.1595225695497655 2.4797156566664307 19.862599236878626 0 0 0
259 259 1 0 10.023245379332357 5.786923494434418 15.198652907764725 0 0 0
260 260 1 0 8.591366437282794 6.613615444101288 17.529694559792908 0 0 0
261 261 1 0 8.591192976690042 4.960127340289765 19.86333254389845 0 0 0
268 268 1 0 11.455064373748366 8.266924992112518 15.198465132978306 0 0 0
269 269 1 0 10.023238090193999 9.093657585681557 17.529456132373898 0 0 0
270 270 1 0 10.023211194863133 7.440491563949098 19.863371031456516 0 0 0
279 279 1 0 11.455468140077969 9.920588668680622 19.86268173952282 0 0 0
358 358 1 0 10.023241037979576 0.8268795011702139 15.198002545654088 0 0 0
359 359 1 0 8.591399680983262 1.6534200745321699 17.529040724925924 0 0 0
393 393 1 0 14.3187942082929 9.92035857512187 12.86002903987232 0 0 0
367 367 1 0 11.455080216288943 3.306929441172807 15.198441981180167 0 0 0
368 368 1 0 10.023242161438347 4.133533901378575 17.52969427590381 0 0 0
369 369 1 0 10.023242111047061 2.4794972539632196 19.862865740263757 0 0 0
376 376 1 0 12.886899209171087 5.786914348800458 15.198465025788455 0 0 0
377 377 1 0 11.455113830044562 6.613613102561483 17.529728536041944 0 0 0
378 378 1 0 11.45526028531348 4.960109516111096 19.863370699492048 0 0 0
385 385 1 0 14.318759807516201 8.266939866521975 15.198051920308249 0 0 0
386 386 1 0 12.887030595661303 9.09368115839121 17.529114264423864 0 0 0
387 387 1 0 12.887517055249099 7.440611468154013 19.86294505334832 0 0 0
396 396 1 0 14.319698606730881 9.92066359400441 19.861947840539745 0 0 0
475 475 1 0 12.88697786853473 0.8268452425559167 15.197990943441063 0 0 0
476 476 1 0 11.455085720896534 1.653419524229555 17.529050611600727 0 0 0
384 384 1 0 12.886917247307114 7.440265179863393 12.8603044120328 0 0 0
484 484 1 0 14.318797011880367 3.306883902664626 15.19823025108396 0 0 0
485 485 1 0 12.886957479745067 4.133550059906495 17.52945574391106 0 0 0
486 486 1 0 12.886958577347494 2.479681725597942 19.862640636338718 0 0 0
493 493 1 0 15.750657894876207 5.78689321916244 15.198028434214244 0 0 0
494 494 1 0 14.318874147348097 6.613655373413357 17.52911416020954 0 0 0
495 495 1 0 14.319215635795107 4.960431989821565 19.86268134961059 0 0 0
502 502 1 0 17.182586801563424 8.266957902359163 15.197558056250454 0 0 0
503 503 1 0 15.750813373385025 9.093736396463756 17.528315584493992 0 0 0
504 504 1 0 15.751395755248158 7.4408911391441155 19.861947785029784 0 0 0
513 513 1 0 17.183250063631988 9.920754331406325 19.86105983110707 0 0 0
592 592 1 0 15.750752012443686 0.8267661612063028 15.197963509068785 0 0 0
593 593 1 0 14.31881009888147 1.6534297307026906 17.528872684373393 0 0 0
383 383 1 0 12.886953596109072 9.093676160791471 10.521873980921754 0 0 0
601 601 1 0 17.182613398366477 3.3068298338866504 15.19797784894245 0 0 0
602 602 1 0 15.750727421448081 4.133587386553198 17.528901786490287 0 0 0
603 603 1 0 15.750729938482648 2.4801104876997235 19.862120525542867 0 0 0
610 610 1 0 18.61454269891429 5.786878414524762 15.197720148295232 0 0 0
611 611 1 0 17.182667094818395 6.61370570229303 17.528378334679054 0 0 0
612 612 1 0 17.182909174093638 4.960817816463851 19.86185718224425 0 0 0
619 619 1 0 20.046507758140592 8.266963328294365 15.19741110948543 0 0 0
620 620 1 0 18.614588627850722 9.093775834332996 17.527748180678064 0 0 0
621 621 1 0 18.614762033504277 7.441089547521039 19.861237574740276 0 0 0
630 630 1 0 20.046320507072558 9.92078168654905 19.860793363876557 0 0 0
709 709 1 0 18.614570715280983 0.8267107486006955 15.19794378802085 0 0 0
710 710 1 0 17.182622829698396 1.6534423048803504 17.528660901808927 0 0 0
375 375 1 0 11.45508268035066 4.960250678529161 12.860422894925385 0 0 0
718 718 1 0 20.046500227165932 3.3068138304032613 15.19790287446667 0 0 0
719 719 1 0 18.614563359332642 4.133613676958654 17.52851071535357 0 0 0
720 720 1 0 18.614564376231918 2.4804135840844306 19.861755394271157 0 0 0
727 727 1 0 21.478465158078055 5.786882588348239 15.19780714897314 0 0 0
728 728 1 0 20.046485118572544 6.613720664140886 17.52815912346439 0 0 0
729 729 1 0 20.04641672049639 4.960932807363404 19.8616119687353 0 0 0
736 736 1 0 22.910402115463206 8.266951275816961 15.197738940778201 0 0 0
737 737 1 0 21.478362464746024 9.093764682133358 17.527908586883242 0 0 0
738 738 1 0 21.47797573385834 7.441033478909208 19.861438487018503 0 0 0
747 747 1 0 22.909526813837743 9.920720911169182 19.86138642894335 0 0 0
1522 1522 2 0 0.11292638529329715 0.06534914736122759 23.39710210705148 0 0 0
1527 1527 2 0 2.594792635776484 0.0653582285928265 23.396448713115518 0 0 0
1528 1528 2 0 1.353867464594714 2.214703918688457 23.396450214371228 0 0 0
1532 1532 2 0 5.076693616287382 0.06540512923769823 23.393196142044204 0 0 0
1533 1533 2 0 3.835783354947156 2.2147416087753027 23.396697995726015 0 0 0
1534 1534 2 0 2.594858866361549 4.3640700481224535 23.393200668448145 0 0 0
1537 1537 2 0 7.5586592140792925 0.06546152265720408 23.389483936005888 0 0 0
1538 1538 2 0 6.317723678982738 2.21480803820158 23.397136781449134 0 0 0
1539 1539 2 0 5.076811369160102 4.36413199991813 23.397139801768787 0 0 0
1540 1540 2 0 3.8358909534618033 6.513487533715721 23.38949102034266 0 0 0
1542 1542 2 0 10.040677437945725 0.06548841051136618 23.387776025827108 0 0 0
1543 1543 2 0 8.799690635559953 2.214858954177476 23.397475508553597 0 0 0
1544 1544 2 0 7.558750717152376 4.364197857847667 23.401618879841337 0 0 0
1545 1545 2 0 6.317839404360662 6.513553397102294 23.397481075022057 0 0 0
1546 1546 2 0 5.076923889915757 8.662965433822595 23.387783497124502 0 0 0
1547 1547 2 0 1.3538670406687103 0.7818061548586112 23.398390113110132 0 0 0
1552 1552 2 0 3.8357717689833724 0.7818418514012488 23.397111057400252 0 0 0
1553 1553 2 0 2.594850164222145 2.9311807187494554 23.397113222836964 0 0 0
1557 1557 2 0 6.317709745971881 0.781907397712036 23.39482934228988 0 0 0
1558 1558 2 0 5.076795497770224 2.9312398902392656 23.39885638537669 0 0 0
1559 1559 2 0 3.8358755717844826 5.080568912065867 23.394834624115134 0 0 0
1562 1562 2 0 8.799685543925813 0.7819601829945235 23.39305279046016 0 0 0
1563 1563 2 0 7.558740085009473 2.931305276712997 23.40083782571628 0 0 0
1564 1564 2 0 6.317824062355092 5.080633896134928 23.400840933623556 0 0 0
1565 1565 2 0 5.076908701046532 7.229996064055694 23.39306007761364 0 0 0
1567 1567 2 0 11.28167872530792 0.7819629973866509 23.39296431162478 0 0 0
1568 1568 2 0 10.04068407860614 2.9313346774580555 23.40174669871554 0 0 0
1569 1569 2 0 8.799736428782209 5.080680662106402 23.40549928461398 0 0 0
1570 1570 2 0 7.558821046774645 7.230045170524745 23.401751803013738 0 0 0
1571 1571 2 0 6.317907187710864 9.379463182832694 23.392971154700064 0 0 0
1572 1572 3 0 0.11291596603176207 0.06535662983086252 26.699456280623977 0 0 0
1577 1577 3 0 2.5948592235862904 0.06535682354586116 26.699311779733307 0 0 0
1578 1578 3 0 1.3538876264098543 2.2147823493614713 26.69931235494414 0 0 0
1582 1582 3 0 5.076803677123167 0.06535741694334554 26.698594690743207 0 0 0
1583 1583 3 0 3.835830900654954 2.2147825705452693 26.700865215833318 0 0 0
1584 1584 3 0 2.5948600910215083 4.364208662757986 26.698597651720334 0 0 0
1587 1587 3 0 7.55874978712348 0.06535892940263008 26.69777923021327 0 0 0
1588 1588 3 0 6.317775299170359 2.2147812482384657 26.703628315966895 0 0 0
1589 1589 3 0 5.0768016680191685 4.3642098103241365 26.70363070126767 0 0 0
1590 1590 3 0 3.835834086945116 6.5136357682572585 26.697784814691047 0 0 0
1592 1592 3 0 10.040696963566333 0.06536015318381312 26.697405185124786 0 0 0
1593 1593 3 0 8.79972237265681 2.2147789354123195 26.70577327229745 0 0 0
1594 1594 3 0 7.558745296241333 4.364208045395065 26.70935422541372 0 0 0
1595 1595 3 0 6.317772829792842 6.513639668511469 26.705778281145413 0 0 0
1596 1596 3 0 5.076808339371644 8.66306384693923 26.697411893457748 0 0 0
1602 1602 3 0 2.5948609428470575 1.49830772352492 26.699874672437048 0 0 0
1607 1607 3 0 5.076804272368414 1.4983065898644279 26.70117135369435 0 0 0
1608 1608 3 0 3.8358318835678515 3.647734470163764 26.701173280398677 0 0 0
1612 1612 3 0 7.558748765546389 1.4983040238000107 26.702645920146622 0 0 0
1613 1613 3 0 6.31777359854304 3.647732391247141 26.70604462391674 0 0 0
1614 1614 3 0 5.076802262028608 5.797163166639691 26.702650599069734 0 0 0
1617 1617 3 0 10.040694377997836 1.4983021565636387 26.70332257234243 0 0 0
1618 1618 3 0 8.79971950539857 3.647728116446283 26.709826071475334 0 0 0
1619 1619 3 0 7.558743209050452 5.797163159020542 26.70982882367771 0 0 0
1620 1620 3 0 6.317773843329016 7.946592634658877 26.70332900862327 0 0 0
708 708 1 0 17.182690041158445 1.698829973281264e-05 12.860082640739051 0 0 0
240 240 1 0 5.72757169029514 7.689360914794793e-05 12.860043293167717 0 0 0
357 357 1 0 8.59135077745651 0.00013641770588076544 12.860004016700831 0 0 0
591 591 1 0 14.31890566073239 8.351010166943357e-05 12.860038953833275 0 0 0
745 745 1 0 24.342271024225504 10.747054501551826 15.19775822288059 0 0 0
628 628 1 0 21.47844467257226 10.747105536604552 15.197318883836761 0 0 0
511 511 1 0 18.614551871175642 10.747116505719564 15.197224759570254 0 0 0
394 394 1 0 15.750688923540679 10.747077712481675 15.197557989952077 0 0 0
277 277 1 0 12.886925417237808 10.747023264409046 15.19802847592338 0 0 0
160 160 1 0 10.023243921891368 10.74700001469221 15.198230478198088 0 0 0
43 43 1 0 7.159557918254321 10.74702756411148 15.197991274936506 0 0 0
24 24 1 0 2.863852442193676 4.960184199247593 12.860043426905325 0 0 0
123 123 1 0 2.8637867749896255 1.2587928636452373e-05 12.860085508081056 0 0 0
15 15 1 0 1.4319042941943996 2.480105842774907 12.860085542248672 0 0 0
33 33 1 0 4.295793535136509 7.440259852475063 12.860004230645497 0 0 0
42 42 1 0 5.727684349900876 9.92036122765884 12.860002172749795 0 0 0
365 365 1 0 10.023241308575132 4.133560123867693 10.521968370296591 0 0 0
366 366 1 0 10.023241571604062 2.4802341896860067 12.86028241517954 0 0 0
608 608 1 0 17.182637683376658 6.613577989141605 10.521754767421655 0 0 0
609 609 1 0 17.18261747373812 4.960186500864079 12.860056650913151 0 0 0
356 356 1 0 8.591360168527379 1.6534927214034307 10.521862045058885 0 0 0
276 276 1 0 11.455079030849262 9.920336287674228 12.860255897257055 0 0 0
267 267 1 0 10.023244382357001 7.440267333961995 12.860422974686728 0 0 0
266 266 1 0 10.023242366161554 9.093672709932868 10.521934582732698 0 0 0
617 617 1 0 18.61456211874366 9.093689902679758 10.521633992840137 0 0 0
618 618 1 0 18.614549208063657 7.440256891200282 12.859834705078157 0 0 0
258 258 1 0 8.591403270346104 4.960249053833258 12.860413639105715 0 0 0
627 627 1 0 20.046500811649473 9.920393236836395 12.859677721540017 0 0 0
257 257 1 0 8.591388694329027 6.61360159143339 10.521968416913204 0 0 0
249 249 1 0 7.1595124963648145 2.4802037777469854 12.860235941993881 0 0 0
1972 1972 2 0 12.522698305411149 0.06546544863655711 23.389213845108422 0 0 0
1973 1973 2 0 11.281669366142552 2.2148613324140225 23.397492500032833 0 0 0
1974 1974 2 0 10.040682390954396 4.364226363191865 23.403673821382043 0 0 0
1975 1975 2 0 8.799741691250151 6.513599934749134 23.403676362268854 0 0 0
1976 1976 2 0 7.558831361449993 8.663009388027582 23.397498446998384 0 0 0
1977 1977 2 0 15.00466982850976 0.06540992080133572 23.392836145854545 0 0 0
1978 1978 2 0 13.763638113139185 2.2148135884648235 23.397176705311892 0 0 0
1979 1979 2 0 12.522613677880065 4.364202200642212 23.4019446701312 0 0 0
1980 1980 2 0 11.281627577064052 6.5136020445508285 23.40398497181343 0 0 0
1981 1981 2 0 10.040686906286531 8.66302817131653 23.40194759041212 0 0 0
1982 1982 2 0 17.486575871345686 0.0653605207004579 23.396236752914234 0 0 0
1983 1983 2 0 16.245580908933473 2.2147465083202804 23.396734592409928 0 0 0
1984 1984 2 0 15.00455183836203 4.364138159430443 23.397575782030316 0 0 0
1985 1985 2 0 13.763526920218814 6.513558726365677 23.398203290792168 0 0 0
1986 1986 2 0 12.522540178841467 8.66301227376255 23.398203668468682 0 0 0
1988 1988 2 0 18.727498211343736 2.214704570384455 23.396459049770797 0 0 0
1989 1989 2 0 17.48650285173085 4.364073632353295 23.39345833089699 0 0 0
1990 1990 2 0 16.24546996853015 6.513492770438661 23.39014938982291 0 0 0
1991 1991 2 0 15.004440552749735 8.662969608392977 23.38872944278784 0 0 0
1994 1994 2 0 19.968463738346745 4.364055114603725 23.392316887791836 0 0 0
1995 1995 2 0 18.72746680100731 6.513448585903449 23.385153935924833 0 0 0
1996 1996 2 0 17.4864290268832 8.662925937320164 23.37978056457756 0 0 0
1997 1997 2 0 13.763657353434231 0.7819138649652831 23.39462302084953 0 0 0
1998 1998 2 0 12.522628098256696 2.9313102032487888 23.400982089590343 0 0 0
1999 1999 2 0 11.281635143457999 5.0806830140432435 23.405731410554978 0 0 0
2000 2000 2 0 10.040687380921604 7.230066192337966 23.405733406497617 0 0 0
2001 2001 2 0 8.799771349650861 9.379483304765547 23.400986755474648 0 0 0
2002 2002 2 0 16.245599146691124 0.781847745618961 23.396923886185768 0 0 0
2003 2003 2 0 15.004572774519078 2.9312467986754367 23.399049519254305 0 0 0
2004 2004 2 0 13.763545357299616 5.080639810242913 23.40138404687272 0 0 0
2005 2005 2 0 12.522551840861837 7.230048714519046 23.402382943042888 0 0 0
2006 2006 2 0 11.281604609087285 9.379484339366064 23.4013856077095 0 0 0
2007 2007 2 0 18.727506207030135 0.7818080771258528 23.39834530864914 0 0 0
2008 2008 2 0 17.48651827657095 2.9311852179715485 23.397227411033015 0 0 0
2009 2009 2 0 16.2454902086305 5.080574908542182 23.395329585250636 0 0 0
2010 2010 2 0 15.004458398616407 7.2300013277622615 23.393906359954954 0 0 0
2011 2011 2 0 13.763463674598192 9.379465697036371 23.39390592048099 0 0 0
2013 2013 2 0 19.968464228271127 2.9311677587257106 23.396722100059037 0 0 0
2014 2014 2 0 18.727475162609693 5.080531872822227 23.3915751154708 0 0 0
2015 2015 2 0 17.48644219219106 7.229952539710715 23.385902445388 0 0 0
2016 2016 2 0 16.24540576931092 9.379438766997378 23.38346907101608 0 0 0
2019 2019 2 0 21.209472476680023 5.0805437836558225 23.392609421294637 0 0 0
2020 2020 2 0 19.9684848313637 7.229938212209093 23.383681088644877 0 0 0
2021 2021 2 0 18.727449953642864 9.379421460125632 23.376985220533037 0 0 0
2022 2022 3 0 12.522644108724066 0.06535985622950138 26.69772031107064 0 0 0
2023 2023 3 0 11.281671181865052 2.21477918962974 26.70588038239275 0 0 0
2024 2024 3 0 10.040696483128722 4.364206367309691 26.711980341917908 0 0 0
2025 2025 3 0 8.799719069967077 6.513641141192992 26.71198296604517 0 0 0
2026 2026 3 0 7.558747064052045 8.663069642147446 26.705886516796944 0 0 0
2027 2027 3 0 15.00459011949765 0.06535897428608874 26.698515878534906 0 0 0
2028 2028 3 0 13.763618428423534 2.2147821923938897 26.703878742779835 0 0 0
2029 2029 3 0 12.522648183312242 4.3642085683085226 26.70977068462615 0 0 0
2030 2030 3 0 11.281673878356994 6.513641541790893 26.71229231581856 0 0 0
2031 2031 3 0 10.040696446117778 8.663072628673556 26.709774435668592 0 0 0
2032 2032 3 0 17.486534374117202 0.06535872792325921 26.699265245225384 0 0 0
2033 2033 3 0 16.245562865523354 2.214784278969889 26.70109322866454 0 0 0
2034 2034 3 0 15.00459242061331 4.364211226672814 26.70418795394687 0 0 0
2035 2035 3 0 13.763621337968303 6.513640960959807 26.706501565296804 0 0 0
2036 2036 3 0 12.522646739387326 8.663070721042939 26.7065026923839 0 0 0
2038 2038 3 0 18.727505984924907 2.2147843944376184 26.699367110964204 0 0 0
2039 2039 3 0 17.486533837872038 4.364210693044884 26.698926957975893 0 0 0
2040 2040 3 0 16.245560287465732 6.51363776236273 26.698443357298657 0 0 0
2041 2041 3 0 15.004586337608096 8.66306557997225 26.69823646460165 0 0 0
2044 2044 3 0 19.968477804516773 4.364209941296956 26.697468522263605 0 0 0
2045 2045 3 0 18.72750442576017 6.513634444545767 26.693450063434753 0 0 0
2046 2046 3 0 17.486527662302137 8.663060958474357 26.690445985399826 0 0 0
2047 2047 3 0 12.522640109331043 1.4983030063844922 26.702753509888353 0 0 0
2048 2048 3 0 11.28166913894098 3.6477274493156893 26.71001472970203 0 0 0
2049 2049 3 0 10.040694123633555 5.7971617793750125 26.713122274043542 0 0 0
2050 2050 3 0 8.799717838084458 7.946595518430438 26.71001923815713 0 0 0
2051 2051 3 0 7.5587478107060235 10.096020895493014 26.702759540007854 0 0 0
2052 2052 3 0 15.004584893225053 1.4983049595780829 26.701315336229044 0 0 0
2053 2053 3 0 13.763615595953016 3.6477308744877814 26.706485712150112 0 0 0
2054 2054 3 0 12.522645725810468 5.797162263229803 26.71035098096315 0 0 0
2055 2055 3 0 11.281670722922229 7.946595287638537 26.710352736757173 0 0 0
2056 2056 3 0 10.040694387396474 10.096023141478426 26.706489813012197 0 0 0
2057 2057 3 0 17.486528558251628 1.4983058041523514 26.699959786394274 0 0 0
2058 2058 3 0 16.24555755010492 3.647732721926322 26.701574880492018 0 0 0
2059 2059 3 0 15.004587348072464 5.7971619055783865 26.703349302423184 0 0 0
2060 2060 3 0 13.763615758569713 7.946591997945471 26.704108777962468 0 0 0
2061 2061 3 0 12.52264156074068 10.09602064224086 26.70335065089681 0 0 0
2063 2063 3 0 18.72749995809322 3.6477321331590598 26.698531871128054 0 0 0
2064 2064 3 0 17.48652694023829 5.797158752332678 26.696751022712377 0 0 0
2065 2065 3 0 16.245552810336882 7.946586540390147 26.695419664860268 0 0 0
2066 2066 3 0 15.004579876794043 10.096015972667919 26.695419258257076 0 0 0
2069 2069 3 0 19.968472299085256 5.797157490846023 26.69492188814293 0 0 0
2070 2070 3 0 18.727497788375942 7.946582588246124 26.69003528303331 0 0 0
2071 2071 3 0 17.486521402966716 10.096013115833358 26.68794406082884 0 0 0
248 248 1 0 7.159507540607097 4.133543646682296 10.521928298431206 0 0 0
374 374 1 0 11.455094981379089 6.613602202838873 10.521973954610164 0 0 0
707 707 1 0 17.18267712708195 1.6534175993690408 10.521835418267074 0 0 0
600 600 1 0 15.750740384168544 2.4801490279843126 12.860152022154448 0 0 0
239 239 1 0 5.727590240143497 1.653455315604308 10.5218488334962 0 0 0
159 159 1 0 8.591407585496274 9.920337522794373 12.860243343061782 0 0 0
150 150 1 0 7.159566565475135 7.440264793223573 12.860282594532421 0 0 0
149 149 1 0 7.159527912678135 9.093676801248368 10.521862833442533 0 0 0
716 716 1 0 18.61456891916048 4.133491222907763 10.521800521274184 0 0 0
717 717 1 0 18.6145672603146 2.480107202281808 12.860087653277287 0 0 0
141 141 1 0 5.727675690324515 4.9602178954725336 12.860236041421565 0 0 0
140 140 1 0 5.72764676754531 6.6135898403212146 10.521862135026488 0 0 0
132 132 1 0 4.29573480131201 2.4801436853906287 12.860143791393192 0 0 0
131 131 1 0 4.2957294091040925 4.133511044284732 10.521848876771479 0 0 0
725 725 1 0 20.046493371298315 6.613574090566693 10.52171936617739 0 0 0
726 726 1 0 20.046499076603943 4.960176170345404 12.859997496848976 0 0 0
599 599 1 0 15.750745951856528 4.133513942007284 10.521855961968683 0 0 0
122 122 1 0 2.8637984539364942 1.6534148294820892 10.521834419411103 0 0 0
474 474 1 0 11.455127025028867 0.00013952483013996927 12.86000196859316 0 0 0
482 482 1 0 12.886972764380303 4.133546202442959 10.521934528098427 0 0 0
734 734 1 0 21.478421849702478 9.093688293714916 10.521662009405318 0 0 0
2096 2096 4 0 17.48662169442927 8.663132568227661 29.998761156251405 0 0 0
735 735 1 0 21.478450666679795 7.44025784306381 12.859889545812571 0 0 0
483 483 1 0 12.88696811369794 2.4802084961581787 12.860243173629296 0 0 0
744 744 1 0 22.91036983289372 9.92037549099516 12.85985738368737 0 0 0
510 510 1 0 17.182611354638755 9.920385276785337 12.85975824108472 0 0 0
2551 2551 4 0 21.20940607867714 9.379591034594071 29.99572480246058 0 0 0
2526 2526 4 0 19.968465843001184 8.663123397401195 29.996308151859438 0 0 0