LAMMPS data file via write_data, version 30 Jun 2020, timestep = 8318

5256 atoms
6 atom types

0.0000000000000000e+00 3.7229172029471727e+01 xlo xhi
0.0000000000000000e+00 3.2241408739383573e+01 ylo yhi
-1.0000000000000000e+01 7.0000000000000000e+01 zlo zhi
1.8614586014735863e+01 0.0000000000000000e+00 0.0000000000000000e+00 xy xz yz

Masses

1 26.982
2 12.01
3 12.01
4 12.01
5 95.96
6 32.06

Atoms # full

1 1 1 0.0 1.4318912299999993 0.8267027900000002 1.1690000000000005 0 0 0
3 3 1 0.0 0.0 0.0 5.845537179999997 0 0 0
4 4 1 0.0 1.4318884011389652 0.826701121490796 8.183588189955863 0 0 0
814 814 1 0.0 35.797288577357214 30.588044595822065 8.183536665878925 0 0 0
813 813 1 0.0 34.36538956999999 29.761300370000008 5.845537179999997 0 0 0
10 10 1 0.0 2.8637824599999995 3.306811150000001 1.1690000000000005 0 0 0
12 12 1 0.0 1.4318912299999993 2.4801083600000005 5.845537179999997 0 0 0
13 13 1 0.0 2.86379226510852 3.306795173965785 8.183580372623688 0 0 0
812 812 1 0.0 34.36538956999999 31.414705950000005 3.507268589999999 0 0 0
811 811 1 0.0 35.7972808 30.588003160000007 1.1690000000000005 0 0 0
19 19 1 0.0 4.295673689999997 5.7869195200000005 1.1690000000000005 0 0 0
22 22 1 0.0 4.2956976462491205 5.78688799444715 8.18356715577568 0 0 0
805 805 1 0.0 34.365395270607976 28.107919942832865 8.183515540217204 0 0 0
28 28 1 0.0 5.727564930000001 8.267027880000002 1.1690000000000005 0 0 0
30 30 1 0.0 4.295673699999999 7.440325090000002 5.845537179999997 0 0 0
31 31 1 0.0 5.727596880171099 8.266994550372106 8.183556616024738 0 0 0
804 804 1 0.0 32.93349833 27.28119201000001 5.845537179999997 0 0 0
803 803 1 0.0 32.93349832999999 28.934597590000006 3.507268589999999 0 0 0
37 37 1 0.0 7.15945616 10.747136250000002 1.1690000000000005 0 0 0
39 39 1 0.0 5.727564930000001 9.920433460000002 5.845537179999997 0 0 0
40 40 1 0.0 7.159492852849718 10.74711335969591 8.183555564783063 0 0 0
802 802 1 0.0 34.36538956 28.107894800000008 1.1690000000000005 0 0 0
796 796 1 0.0 32.93349946919338 25.627796399855523 8.183513407526995 0 0 0
46 46 1 0.0 8.59134739 13.227244610000003 1.1690000000000005 0 0 0
48 48 1 0.0 7.1594561599999915 12.400541820000004 5.845537179999997 0 0 0
49 49 1 0.0 8.591386240096998 13.227229722660532 8.18356270611023 0 0 0
795 795 1 0.0 31.5016071 24.801083650000006 5.845537179999997 0 0 0
794 794 1 0.0 31.5016071 26.454489230000007 3.507268589999999 0 0 0
55 55 1 0.0 10.02323862 15.707352980000003 1.1690000000000005 0 0 0
58 58 1 0.0 10.023273366688198 15.707337345329382 8.183569529450345 0 0 0
793 793 1 0.0 32.93349833 25.62778644000001 1.1690000000000005 0 0 0
64 64 1 0.0 11.455129849999985 18.187461340000002 1.1690000000000005 0 0 0
67 67 1 0.0 11.455157704315054 18.1874442107616 8.183569421773448 0 0 0
787 787 1 0.0 31.501600009975714 23.147680667047343 8.183513807009412 0 0 0
73 73 1 0.0 12.88702109 20.667569710000002 1.1690000000000005 0 0 0
75 75 1 0.0 11.455129860000001 19.840866920000003 5.845537179999997 0 0 0
76 76 1 0.0 12.887049297079063 20.667556521782274 8.183564635431637 0 0 0
786 786 1 0.0 30.069715869999996 22.320975280000003 5.845537179999997 0 0 0
785 785 1 0.0 30.069715869999996 23.974380860000004 3.507268589999999 0 0 0
82 82 1 0.0 14.31891232 23.147678070000005 1.1690000000000005 0 0 0
84 84 1 0.0 12.887021089999978 22.320975280000003 5.845537179999997 0 0 0
85 85 1 0.0 14.318947771732926 23.147669865356114 8.183562852670928 0 0 0
784 784 1 0.0 31.5016071 23.147678070000005 1.1690000000000005 0 0 0
778 778 1 0.0 30.06969428258713 20.66756330161597 8.183515274369476 0 0 0
91 91 1 0.0 15.750803549999992 25.62778644000001 1.1690000000000005 0 0 0
94 94 1 0.0 15.750838509012125 25.627780116986035 8.183568456134154 0 0 0
777 777 1 0.0 28.63782464 19.840866920000003 5.845537179999997 0 0 0
100 100 1 0.0 17.182694779999967 28.107894800000008 1.1690000000000005 0 0 0
103 103 1 0.0 17.182713573910615 28.107891008970544 8.18357869354534 0 0 0
776 776 1 0.0 28.637824640000005 21.494272500000005 3.507268589999999 0 0 0
109 109 1 0.0 18.614586009999982 30.588003160000007 1.1690000000000005 0 0 0
112 112 1 0.0 18.614586179942112 30.588003776406566 8.183587065562286 0 0 0
775 775 1 0.0 30.06971587 20.667569710000002 1.1690000000000005 0 0 0
118 118 1 0.0 4.29567369 0.8267027900000002 1.1690000000000005 0 0 0
119 119 1 0.0 2.8637824599999986 1.6534055800000005 3.507268589999999 0 0 0
120 120 1 0.0 2.86378246 0.0 5.845537179999997 0 0 0
121 121 1 0.0 4.2956648201719645 0.8267191959404064 8.18358044101631 0 0 0
769 769 1 0.0 28.637790621323973 18.18744421227191 8.18353190204158 0 0 0
768 768 1 0.0 27.20593341 17.360758550000003 5.845537179999997 0 0 0
767 767 1 0.0 27.20593340999999 19.014164130000005 3.507268589999999 0 0 0
766 766 1 0.0 28.637824639999998 18.187461340000002 1.1690000000000005 0 0 0
127 127 1 0.0 5.72756493 3.306811150000001 1.1690000000000005 0 0 0
128 128 1 0.0 4.2956737 4.133513940000001 3.507268589999999 0 0 0
129 129 1 0.0 4.2956737 2.4801083600000005 5.845537179999997 0 0 0
130 130 1 0.0 5.727569883595591 3.306813942109073 8.18359025173811 0 0 0
760 760 1 0.0 27.20590292097367 15.707335373952267 8.1835571360585 0 0 0
759 759 1 0.0 25.77404217 14.880650190000004 5.845537179999997 0 0 0
758 758 1 0.0 25.77404217 16.534055770000002 3.507268589999999 0 0 0
757 757 1 0.0 27.2059334 15.707352980000003 1.1690000000000005 0 0 0
136 136 1 0.0 7.1594561599999995 5.7869195200000005 1.1690000000000005 0 0 0
137 137 1 0.0 5.72756493 6.613622310000002 3.507268589999999 0 0 0
138 138 1 0.0 5.72756493 4.960216730000001 5.845537179999997 0 0 0
139 139 1 0.0 7.159468790570667 5.786903225262715 8.18358463670107 0 0 0
751 751 1 0.0 25.774030214028297 13.227236356733226 8.183563636063301 0 0 0
750 750 1 0.0 24.34215094 12.400541820000004 5.845537179999997 0 0 0
749 749 1 0.0 24.342150939999996 14.053947400000004 3.507268589999999 0 0 0
748 748 1 0.0 25.774042170000005 13.227244610000003 1.1690000000000005 0 0 0
145 145 1 0.0 8.59134739 8.267027880000002 1.1690000000000005 0 0 0
146 146 1 0.0 7.1594561599999915 9.093730670000001 3.507268589999999 0 0 0
147 147 1 0.0 7.15945616 7.440325090000002 5.845537179999997 0 0 0
148 148 1 0.0 8.591364807350077 8.26700833824404 8.183571541746787 0 0 0
742 742 1 0.0 24.34215428325443 10.747130804522495 8.183547799634525 0 0 0
741 741 1 0.0 22.91025971 9.920433460000002 5.845537179999997 0 0 0
740 740 1 0.0 22.91025971 11.573839040000001 3.507268589999999 0 0 0
739 739 1 0.0 24.34215094 10.747136250000002 1.1690000000000005 0 0 0
154 154 1 0.0 10.02323862 10.747136250000002 1.1690000000000005 0 0 0
155 155 1 0.0 8.591347389999996 11.573839040000001 3.507268589999999 0 0 0
156 156 1 0.0 8.59134739 9.920433460000002 5.845537179999997 0 0 0
157 157 1 0.0 10.023258524129345 10.747126067749136 8.18357102386495 0 0 0
733 733 1 0.0 22.91026298430635 8.267014979294279 8.183541044578554 0 0 0
732 732 1 0.0 21.47836848 7.440325090000002 5.845537179999997 0 0 0
731 731 1 0.0 21.47836848 9.093730670000001 3.507268589999999 0 0 0
730 730 1 0.0 22.91025971 8.267027880000002 1.1690000000000005 0 0 0
163 163 1 0.0 11.45512985 13.227244610000003 1.1690000000000005 0 0 0
164 164 1 0.0 10.023238619999983 14.053947400000004 3.507268589999999 0 0 0
165 165 1 0.0 10.023238619999995 12.400541820000004 5.845537179999997 0 0 0
166 166 1 0.0 11.45514579489686 13.227238643082755 8.183580611849152 0 0 0
724 724 1 0.0 21.478364911489784 5.786908400009787 8.183561145118436 0 0 0
723 723 1 0.0 20.04647724999999 4.960216730000001 5.845537179999997 0 0 0
722 722 1 0.0 20.04647725 6.613622310000002 3.507268589999999 0 0 0
721 721 1 0.0 21.47836848 5.7869195200000005 1.1690000000000005 0 0 0
172 172 1 0.0 12.88702109 15.707352980000003 1.1690000000000005 0 0 0
173 173 1 0.0 11.45512986 16.534055770000002 3.507268589999999 0 0 0
174 174 1 0.0 11.45512986 14.880650190000004 5.845537179999997 0 0 0
175 175 1 0.0 12.88702993147322 15.707344147810435 8.18358123846214 0 0 0
715 715 1 0.0 20.046474023733627 3.3068231533293857 8.183581219363251 0 0 0
714 714 1 0.0 18.61458601 2.4801083600000005 5.845537179999997 0 0 0
713 713 1 0.0 18.61458601 4.133513940000001 3.507268589999999 0 0 0
712 712 1 0.0 20.04647724 3.306811150000001 1.1690000000000005 0 0 0
181 181 1 0.0 14.318912319999983 18.187461340000002 1.1690000000000005 0 0 0
182 182 1 0.0 12.887021089999982 19.014164130000005 3.507268589999999 0 0 0
183 183 1 0.0 12.887021089999987 17.360758550000003 5.845537179999997 0 0 0
184 184 1 0.0 14.318921310048278 18.187455047207873 8.183572188000028 0 0 0
706 706 1 0.0 18.614589851273166 0.8267406559766893 8.183569580262429 0 0 0
705 705 1 0.0 17.18269478 0.0 5.845537179999997 0 0 0
704 704 1 0.0 17.18269478 1.6534055800000005 3.507268589999999 0 0 0
703 703 1 0.0 18.61458601 0.8267027900000002 1.1690000000000005 0 0 0
190 190 1 0.0 15.75080355 20.667569710000002 1.1690000000000005 0 0 0
191 191 1 0.0 14.31891232 21.494272500000005 3.507268589999999 0 0 0
192 192 1 0.0 14.31891232 19.840866920000003 5.845537179999997 0 0 0
193 193 1 0.0 15.750819882273992 20.667571674508498 8.183572546911037 0 0 0
697 697 1 0.0 32.93350253281076 30.58804438370846 8.183531875567581 0 0 0
696 696 1 0.0 31.5016071 29.761300370000008 5.845537179999997 0 0 0
695 695 1 0.0 31.5016071 31.414705950000005 3.507268589999999 0 0 0
694 694 1 0.0 32.93349833 30.588003160000007 1.1690000000000005 0 0 0
199 199 1 0.0 17.18269478 23.147678070000005 1.1690000000000005 0 0 0
200 200 1 0.0 15.75080355 23.974380860000004 3.507268589999999 0 0 0
201 201 1 0.0 15.750803549999977 22.320975280000003 5.845537179999997 0 0 0
202 202 1 0.0 17.182710886556613 23.14768082357171 8.183586284711971 0 0 0
688 688 1 0.0 31.501606682938508 28.107918197668216 8.183510998796002 0 0 0
687 687 1 0.0 30.069715869999996 27.28119201000001 5.845537179999997 0 0 0
686 686 1 0.0 30.069715869999996 28.934597590000006 3.507268589999999 0 0 0
685 685 1 0.0 31.50160709999996 28.107894800000008 1.1690000000000005 0 0 0
208 208 1 0.0 18.614586009999993 25.62778644000001 1.1690000000000005 0 0 0
209 209 1 0.0 17.18269477999999 26.454489230000007 3.507268589999999 0 0 0
210 210 1 0.0 17.18269478 24.801083650000006 5.845537179999997 0 0 0
211 211 1 0.0 18.61458610265761 25.627781878389875 8.183593241267332 0 0 0
679 679 1 0.0 30.069707255853572 25.62779251984534 8.183506927622464 0 0 0
678 678 1 0.0 28.63782464 24.801083650000006 5.845537179999997 0 0 0
677 677 1 0.0 28.63782464 26.454489230000007 3.507268589999999 0 0 0
676 676 1 0.0 30.069715869999996 25.62778644000001 1.1690000000000005 0 0 0
217 217 1 0.0 20.046477239999966 28.107894800000008 1.1690000000000005 0 0 0
218 218 1 0.0 18.614586009999968 28.934597590000006 3.507268589999999 0 0 0
219 219 1 0.0 18.614586009999982 27.28119201000001 5.845537179999997 0 0 0
220 220 1 0.0 20.046458739787337 28.107891090985373 8.183583171399768 0 0 0
670 670 1 0.0 28.637801439090673 23.1476732219903 8.183515892619859 0 0 0
669 669 1 0.0 27.205933409999986 22.320975280000003 5.845537179999997 0 0 0
668 668 1 0.0 27.20593341 23.974380860000004 3.507268589999999 0 0 0
667 667 1 0.0 28.63782464 23.147678070000005 1.1690000000000005 0 0 0
226 226 1 0.0 21.47836848 30.588003160000007 1.1690000000000005 0 0 0
227 227 1 0.0 20.04647724999999 31.414705950000005 3.507268589999999 0 0 0
228 228 1 0.0 20.04647724999999 29.761300370000008 5.845537179999997 0 0 0
229 229 1 0.0 21.478347027350587 30.58801284743567 8.183573729595814 0 0 0
661 661 1 0.0 27.205897705940878 20.667557002823848 8.183535029754132 0 0 0
660 660 1 0.0 25.77404217 19.840866920000003 5.845537179999997 0 0 0
659 659 1 0.0 25.77404217 21.494272500000005 3.507268589999999 0 0 0
658 658 1 0.0 27.2059334 20.667569710000002 1.1690000000000005 0 0 0
235 235 1 0.0 7.15945616 0.8267027900000002 1.1690000000000005 0 0 0
236 236 1 0.0 5.72756493 1.6534055800000005 3.507268589999999 0 0 0
237 237 1 0.0 5.727564930000001 0.0 5.845537179999997 0 0 0
238 238 1 0.0 7.159440870359531 0.8267392365674812 8.183567271491068 0 0 0
652 652 1 0.0 25.774010189499737 18.187446986147528 8.183556441047926 0 0 0
651 651 1 0.0 24.342150939999996 17.360758550000003 5.845537179999997 0 0 0
650 650 1 0.0 24.342150939999986 19.014164130000005 3.507268589999999 0 0 0
649 649 1 0.0 25.77404217 18.187461340000002 1.1690000000000005 0 0 0
244 244 1 0.0 8.59134739 3.306811150000001 1.1690000000000005 0 0 0
245 245 1 0.0 7.15945616 4.133513940000001 3.507268589999999 0 0 0
246 246 1 0.0 7.159456160000001 2.4801083600000005 5.845537179999997 0 0 0
247 247 1 0.0 8.591339631993712 3.306830144787752 8.183584681390819 0 0 0
643 643 1 0.0 24.34213780133237 15.70734675057266 8.183563630037007 0 0 0
642 642 1 0.0 22.910259709999995 14.880650190000004 5.845537179999997 0 0 0
641 641 1 0.0 22.910259709999995 16.534055770000002 3.507268589999999 0 0 0
640 640 1 0.0 24.34215094 15.707352980000003 1.1690000000000005 0 0 0
253 253 1 0.0 10.02323862 5.7869195200000005 1.1690000000000005 0 0 0
254 254 1 0.0 8.591347389999996 6.613622310000002 3.507268589999999 0 0 0
255 255 1 0.0 8.59134739 4.960216730000001 5.845537179999997 0 0 0
256 256 1 0.0 10.023235585145564 5.786917722381298 8.183576301897652 0 0 0
634 634 1 0.0 22.910261991955117 13.227245941874127 8.183550644594824 0 0 0
633 633 1 0.0 21.47836848 12.400541820000004 5.845537179999997 0 0 0
632 632 1 0.0 21.47836848 14.053947400000004 3.507268589999999 0 0 0
631 631 1 0.0 22.910259709999995 13.227244610000003 1.1690000000000005 0 0 0
262 262 1 0.0 11.455129849999999 8.267027880000002 1.1690000000000005 0 0 0
263 263 1 0.0 10.02323862 9.093730670000001 3.507268589999999 0 0 0
264 264 1 0.0 10.02323862 7.440325090000002 5.845537179999997 0 0 0
265 265 1 0.0 11.455129562007937 8.267021779075087 8.183563767023152 0 0 0
625 625 1 0.0 21.47837058309597 10.747131501175192 8.183536824563213 0 0 0
624 624 1 0.0 20.046477249999995 9.920433460000002 5.845537179999997 0 0 0
623 623 1 0.0 20.046477249999995 11.573839040000001 3.507268589999999 0 0 0
622 622 1 0.0 21.47836848 10.747136250000002 1.1690000000000005 0 0 0
271 271 1 0.0 12.88702109 10.747136250000002 1.1690000000000005 0 0 0
272 272 1 0.0 11.45512986 11.573839040000001 3.507268589999999 0 0 0
273 273 1 0.0 11.45512986 9.920433460000002 5.845537179999997 0 0 0
274 274 1 0.0 12.887017110106346 10.747135792415719 8.183566085727527 0 0 0
616 616 1 0.0 20.046472462492066 8.267011594276001 8.18354519383547 0 0 0
615 615 1 0.0 18.61458601 7.440325090000002 5.845537179999997 0 0 0
614 614 1 0.0 18.61458601 9.093730670000001 3.507268589999999 0 0 0
613 613 1 0.0 20.04647724 8.267027880000002 1.1690000000000005 0 0 0
280 280 1 0.0 14.318912320000003 13.227244610000003 1.1690000000000005 0 0 0
281 281 1 0.0 12.887021089999987 14.053947400000004 3.507268589999999 0 0 0
282 282 1 0.0 12.88702109 12.400541820000004 5.845537179999997 0 0 0
283 283 1 0.0 14.31890114735137 13.227246094372438 8.183569743686206 0 0 0
607 607 1 0.0 18.614581701854874 5.78690906813986 8.183569673274313 0 0 0
606 606 1 0.0 17.18269478 4.960216730000001 5.845537179999997 0 0 0
605 605 1 0.0 17.18269478 6.613622310000002 3.507268589999999 0 0 0
604 604 1 0.0 18.61458601 5.7869195200000005 1.1690000000000005 0 0 0
289 289 1 0.0 15.75080355 15.707352980000003 1.1690000000000005 0 0 0
290 290 1 0.0 14.318912319999999 16.534055770000002 3.507268589999999 0 0 0
291 291 1 0.0 14.318912319999999 14.880650190000004 5.845537179999997 0 0 0
292 292 1 0.0 15.750792173637441 15.7073554252878 8.183561206439492 0 0 0
598 598 1 0.0 17.182697572705948 3.3068278761959973 8.1835805878022 0 0 0
597 597 1 0.0 15.750803550000002 2.4801083600000005 5.845537179999997 0 0 0
596 596 1 0.0 15.75080355 4.133513940000001 3.507268589999999 0 0 0
595 595 1 0.0 17.18269478 3.306811150000001 1.1690000000000005 0 0 0
298 298 1 0.0 17.18269478 18.187461340000002 1.1690000000000005 0 0 0
299 299 1 0.0 15.75080354999998 19.014164130000005 3.507268589999999 0 0 0
300 300 1 0.0 15.75080354999999 17.360758550000003 5.845537179999997 0 0 0
301 301 1 0.0 17.182690556908994 18.18747068608744 8.183556886463847 0 0 0
589 589 1 0.0 15.750810069237899 0.8267438488176553 8.183562749771014 0 0 0
588 588 1 0.0 14.31891232 0.0 5.845537179999997 0 0 0
587 587 1 0.0 14.31891232 1.6534055800000005 3.507268589999999 0 0 0
586 586 1 0.0 15.75080355 0.8267027900000002 1.1690000000000005 0 0 0
307 307 1 0.0 18.61458601 20.667569710000002 1.1690000000000005 0 0 0
308 308 1 0.0 17.18269478 21.494272500000005 3.507268589999999 0 0 0
309 309 1 0.0 17.18269478 19.840866920000003 5.845537179999997 0 0 0
310 310 1 0.0 18.614581614145944 20.66758335267902 8.183572641323885 0 0 0
580 580 1 0.0 30.069709707773033 30.58804503519611 8.183525149868771 0 0 0
579 579 1 0.0 28.637824639999998 29.761300370000008 5.845537179999997 0 0 0
578 578 1 0.0 28.637824639999998 31.414705950000005 3.507268589999999 0 0 0
577 577 1 0.0 30.069715869999996 30.588003160000007 1.1690000000000005 0 0 0
316 316 1 0.0 20.04647724 23.147678070000005 1.1690000000000005 0 0 0
317 317 1 0.0 18.614586009999996 23.974380860000004 3.507268589999999 0 0 0
318 318 1 0.0 18.614586009999982 22.320975280000003 5.845537179999997 0 0 0
319 319 1 0.0 20.04645683578221 23.14768342472911 8.183587870523574 0 0 0
571 571 1 0.0 28.63781043713523 28.107916679520216 8.183502295808324 0 0 0
570 570 1 0.0 27.20593340999999 27.28119201000001 5.845537179999997 0 0 0
569 569 1 0.0 27.205933409999965 28.934597590000006 3.507268589999999 0 0 0
568 568 1 0.0 28.637824639999963 28.107894800000008 1.1690000000000005 0 0 0
325 325 1 0.0 21.47836848 25.62778644000001 1.1690000000000005 0 0 0
326 326 1 0.0 20.04647724999999 26.454489230000007 3.507268589999999 0 0 0
327 327 1 0.0 20.04647724999999 24.801083650000006 5.845537179999997 0 0 0
328 328 1 0.0 21.478329357824485 25.62778279903891 8.183574542046166 0 0 0
562 562 1 0.0 27.20590458751667 25.627787444176967 8.183506844218968 0 0 0
561 561 1 0.0 25.77404217 24.801083650000006 5.845537179999997 0 0 0
560 560 1 0.0 25.77404217 26.454489230000007 3.507268589999999 0 0 0
559 559 1 0.0 27.2059334 25.62778644000001 1.1690000000000005 0 0 0
334 334 1 0.0 22.91025970999996 28.107894800000008 1.1690000000000005 0 0 0
335 335 1 0.0 21.478368479999965 28.934597590000006 3.507268589999999 0 0 0
336 336 1 0.0 21.47836848 27.28119201000001 5.845537179999997 0 0 0
337 337 1 0.0 22.91021766782122 28.10790113275358 8.183546527784465 0 0 0
553 553 1 0.0 25.774000564868345 23.147669458464573 8.183533598439531 0 0 0
552 552 1 0.0 24.342150939999986 22.320975280000003 5.845537179999997 0 0 0
551 551 1 0.0 24.342150939999996 23.974380860000004 3.507268589999999 0 0 0
550 550 1 0.0 25.77404217 23.147678070000005 1.1690000000000005 0 0 0
343 343 1 0.0 24.342150939999986 30.588003160000007 1.1690000000000005 0 0 0
344 344 1 0.0 22.910259709999995 31.414705950000005 3.507268589999999 0 0 0
345 345 1 0.0 22.910259709999995 29.761300370000008 5.845537179999997 0 0 0
346 346 1 0.0 24.34212170999524 30.58803216154015 8.183542721793067 0 0 0
544 544 1 0.0 24.342112916979378 20.667562449797643 8.183557396251476 0 0 0
543 543 1 0.0 22.91025971 19.840866920000003 5.845537179999997 0 0 0
542 542 1 0.0 22.91025971 21.494272500000005 3.507268589999999 0 0 0
541 541 1 0.0 24.34215094 20.667569710000002 1.1690000000000005 0 0 0
352 352 1 0.0 10.02323862 0.8267027900000002 1.1690000000000005 0 0 0
353 353 1 0.0 8.59134739 1.6534055800000005 3.507268589999999 0 0 0
354 354 1 0.0 8.59134739 0.0 5.845537179999997 0 0 0
355 355 1 0.0 10.023225718473194 0.826747098257987 8.18355671052123 0 0 0
535 535 1 0.0 22.910240809785567 18.187460910044205 8.18356037661632 0 0 0
534 534 1 0.0 21.47836848 17.360758550000003 5.845537179999997 0 0 0
533 533 1 0.0 21.47836848 19.014164130000005 3.507268589999999 0 0 0
532 532 1 0.0 22.910259709999995 18.187461340000002 1.1690000000000005 0 0 0
361 361 1 0.0 11.455129849999997 3.306811150000001 1.1690000000000005 0 0 0
362 362 1 0.0 10.02323862 4.133513940000001 3.507268589999999 0 0 0
363 363 1 0.0 10.02323862 2.4801083600000005 5.845537179999997 0 0 0
364 364 1 0.0 11.455121622585422 3.306835942689425 8.183571566014457 0 0 0
526 526 1 0.0 21.478365406684738 15.707358606458257 8.183547799521932 0 0 0
525 525 1 0.0 20.04647724999999 14.880650190000004 5.845537179999997 0 0 0
524 524 1 0.0 20.04647724999999 16.534055770000002 3.507268589999999 0 0 0
523 523 1 0.0 21.47836848 15.707352980000003 1.1690000000000005 0 0 0
370 370 1 0.0 12.887021090000001 5.7869195200000005 1.1690000000000005 0 0 0
371 371 1 0.0 11.45512986 6.613622310000002 3.507268589999999 0 0 0
372 372 1 0.0 11.45512986 4.960216730000001 5.845537179999997 0 0 0
373 373 1 0.0 12.887015641066546 5.786922283673287 8.183563749363763 0 0 0
517 517 1 0.0 20.04647415986171 13.227248835973024 8.18353683004203 0 0 0
516 516 1 0.0 18.614586009999993 12.400541820000004 5.845537179999997 0 0 0
515 515 1 0.0 18.614586009999993 14.053947400000004 3.507268589999999 0 0 0
514 514 1 0.0 20.04647724 13.227244610000003 1.1690000000000005 0 0 0
379 379 1 0.0 14.31891232 8.267027880000002 1.1690000000000005 0 0 0
380 380 1 0.0 12.88702109 9.093730670000001 3.507268589999999 0 0 0
381 381 1 0.0 12.887021089999998 7.440325090000002 5.845537179999997 0 0 0
382 382 1 0.0 14.318903385427305 8.26702274178695 8.183554201527638 0 0 0
508 508 1 0.0 18.614576013871787 10.747130505597822 8.18353816359376 0 0 0
507 507 1 0.0 17.18269478 9.920433460000002 5.845537179999997 0 0 0
506 506 1 0.0 17.18269478 11.573839040000001 3.507268589999999 0 0 0
505 505 1 0.0 18.61458601 10.747136250000002 1.1690000000000005 0 0 0
388 388 1 0.0 15.75080355 10.747136250000002 1.1690000000000005 0 0 0
389 389 1 0.0 14.318912319999999 11.573839040000001 3.507268589999999 0 0 0
390 390 1 0.0 14.31891232 9.920433460000002 5.845537179999997 0 0 0
391 391 1 0.0 15.750787462857463 10.747134579687541 8.183550819213067 0 0 0
499 499 1 0.0 17.18268526577856 8.267014817496769 8.183550776599127 0 0 0
498 498 1 0.0 15.75080355 7.440325090000002 5.845537179999997 0 0 0
497 497 1 0.0 15.75080355 9.093730670000001 3.507268589999999 0 0 0
496 496 1 0.0 17.18269478 8.267027880000002 1.1690000000000005 0 0 0
397 397 1 0.0 17.18269478 13.227244610000003 1.1690000000000005 0 0 0
398 398 1 0.0 15.75080354999998 14.053947400000004 3.507268589999999 0 0 0
399 399 1 0.0 15.75080355 12.400541820000004 5.845537179999997 0 0 0
400 400 1 0.0 17.182678270271733 13.227248634128898 8.183545244576585 0 0 0
490 490 1 0.0 15.750801139815364 5.786916277941305 8.183566023885433 0 0 0
489 489 1 0.0 14.318912320000003 4.960216730000001 5.845537179999997 0 0 0
488 488 1 0.0 14.31891232 6.613622310000002 3.507268589999999 0 0 0
487 487 1 0.0 15.75080355 5.7869195200000005 1.1690000000000005 0 0 0
406 406 1 0.0 18.614586009999996 15.707352980000003 1.1690000000000005 0 0 0
407 407 1 0.0 17.18269478 16.534055770000002 3.507268589999999 0 0 0
408 408 1 0.0 17.18269478 14.880650190000004 5.845537179999997 0 0 0
409 409 1 0.0 18.614576462786886 15.707362270339257 8.183541085199614 0 0 0
481 481 1 0.0 14.318913425231479 3.3068334213081703 8.183571007544838 0 0 0
480 480 1 0.0 12.88702109 2.4801083600000005 5.845537179999997 0 0 0
479 479 1 0.0 12.887021090000001 4.133513940000001 3.507268589999999 0 0 0
478 478 1 0.0 14.31891232 3.306811150000001 1.1690000000000005 0 0 0
415 415 1 0.0 20.04647724 18.187461340000002 1.1690000000000005 0 0 0
416 416 1 0.0 18.614586009999982 19.014164130000005 3.507268589999999 0 0 0
417 417 1 0.0 18.61458600999999 17.360758550000003 5.845537179999997 0 0 0
418 418 1 0.0 20.046467529600562 18.18747364413684 8.183551942154494 0 0 0
472 472 1 0.0 12.887019583474626 0.82674599104793 8.183555616809315 0 0 0
471 471 1 0.0 11.455129860000001 0.0 5.845537179999997 0 0 0
470 470 1 0.0 11.455129860000001 1.6534055800000005 3.507268589999999 0 0 0
469 469 1 0.0 12.88702109 0.8267027900000002 1.1690000000000005 0 0 0
424 424 1 0.0 21.47836848 20.667569710000002 1.1690000000000005 0 0 0
425 425 1 0.0 20.04647724999999 21.494272500000005 3.507268589999999 0 0 0
426 426 1 0.0 20.046477249999995 19.840866920000003 5.845537179999997 0 0 0
427 427 1 0.0 21.478342709323822 20.66757724664171 8.183569208111415 0 0 0
463 463 1 0.0 27.205912769153993 30.588043936279377 8.18352406523639 0 0 0
462 462 1 0.0 25.77404217 29.761300370000008 5.845537179999997 0 0 0
461 461 1 0.0 25.77404217 31.414705950000005 3.507268589999999 0 0 0
460 460 1 0.0 27.20593339999999 30.588003160000007 1.1690000000000005 0 0 0
433 433 1 0.0 22.910259709999995 23.147678070000005 1.1690000000000005 0 0 0
434 434 1 0.0 21.47836848 23.974380860000004 3.507268589999999 0 0 0
435 435 1 0.0 21.47836848 22.320975280000003 5.845537179999997 0 0 0
436 436 1 0.0 22.910214934630762 23.147675495001423 8.183564036169336 0 0 0
454 454 1 0.0 25.774007184723988 28.10791185841519 8.183509744545646 0 0 0
453 453 1 0.0 24.342150939999996 27.28119201000001 5.845537179999997 0 0 0
452 452 1 0.0 24.34215093999996 28.934597590000006 3.507268589999999 0 0 0
451 451 1 0.0 25.77404217 28.107894800000008 1.1690000000000005 0 0 0
442 442 1 0.0 24.342150939999996 25.62778644000001 1.1690000000000005 0 0 0
443 443 1 0.0 22.910259709999995 26.454489230000007 3.507268589999999 0 0 0
444 444 1 0.0 22.910259709999995 24.801083650000006 5.845537179999997 0 0 0
445 445 1 0.0 24.34210298332124 25.62778396002351 8.183532363953773 0 0 0
447 447 1 0.0 22.910130048132046 24.801083219450668 12.859984960677238 0 0 0
448 448 1 0.0 24.342050500427938 25.627806812792382 15.19751794197104 0 0 0
449 449 1 0.0 22.91020334590391 26.454504061463407 17.52840230089266 0 0 0
446 446 1 0.0 22.910177226261617 26.454484107552393 10.521721807044273 0 0 0
440 440 1 0.0 21.47819114119919 23.974562425724724 17.529163814913286 0 0 0
439 439 1 0.0 22.910094752000184 23.14773987622735 15.197843513009957 0 0 0
438 438 1 0.0 21.47827168736525 22.3210114696601 12.860094445779936 0 0 0
126 126 1 0.0 21.47865829903248 32.24125539607121 19.86167449902263 0 -1 0
135 135 1 0.0 4.295755976180045 2.4801572209877567 19.86351528076216 0 0 0
144 144 1 0.0 5.727314366240892 4.960488371238539 19.86404222603424 0 0 0
153 153 1 0.0 7.159006423880497 7.440630170396542 19.86231589214384 0 0 0
162 162 1 0.0 8.590966018139925 9.920565424489867 19.86134013771718 0 0 0
171 171 1 0.0 10.02312131883359 12.40047516772386 19.86281788096977 0 0 0
180 180 1 0.0 11.455257083000754 14.88053959184872 19.864112404851447 0 0 0
189 189 1 0.0 12.887165761179869 17.360765907462294 19.862957309259826 0 0 0
198 198 1 0.0 14.318813094576853 19.84103316670188 19.861383359838975 0 0 0
207 207 1 0.0 15.750413053548641 22.321218098487556 19.862204358211724 0 0 0
216 216 1 0.0 17.182254764916454 24.80125920750503 19.864001736731502 0 0 0
225 225 1 0.0 18.614411976055504 27.281192196969197 19.86364573320867 0 0 0
234 234 1 0.0 20.04665174681785 29.7611383678947 19.861771951970404 0 0 0
243 243 1 0.0 24.342601724959362 32.24093022532453 19.862415834421377 0 -1 0
252 252 1 0.0 7.159565257474837 2.479757408801864 19.86404628663975 0 0 0
261 261 1 0.0 8.591269265743051 4.960172639142346 19.86333659823633 0 0 0
270 270 1 0.0 10.023242308907738 7.440477916358423 19.86157795993872 0 0 0
279 279 1 0.0 11.455397015549732 9.920531940252388 19.86186030892739 0 0 0
288 288 1 0.0 12.88751516908319 12.400422929785194 19.863620712872034 0 0 0
297 297 1 0.0 14.319407191028152 14.880329432513829 19.86368945317537 0 0 0
306 306 1 0.0 15.751052598750515 17.360379027985243 19.861927650030825 0 0 0
315 315 1 0.0 17.18265719529652 19.84061783629463 19.861489549980966 0 0 0
324 324 1 0.0 18.614502319077612 22.320959393477217 19.863232162054693 0 0 0
333 333 1 0.0 20.046665605305375 24.801205423183497 19.864129841463992 0 0 0
342 342 1 0.0 21.47891333390798 27.281190570106762 19.862594264979165 0 0 0
351 351 1 0.0 22.910925763857875 29.760999519460647 19.86123913414758 0 0 0
360 360 1 0.0 27.20617111803133 32.24065483115758 19.86190414070404 0 -1 0
369 369 1 0.0 10.023278173320266 2.479567646053354 19.86232046838147 0 0 0
378 378 1 0.0 11.455264242315522 4.960144482042178 19.86157835150866 0 0 0
387 387 1 0.0 12.887439444592719 7.4405664767644355 19.861061010901974 0 0 0
396 396 1 0.0 14.319565168680374 9.920603547328234 19.86165566823955 0 0 0
405 405 1 0.0 15.751444282013935 12.40034375410113 19.862190739750773 0 0 0
414 414 1 0.0 17.18307733123264 14.880079930537729 19.861643013310072 0 0 0
423 423 1 0.0 18.61467746595327 17.360107065445767 19.86098311913929 0 0 0
432 432 1 0.0 20.046517723349545 19.840508589967314 19.86148157870721 0 0 0
441 441 1 0.0 21.478677749678816 22.321053276156558 19.86233172868498 0 0 0
450 450 1 0.0 22.91093171443049 24.801347631480795 19.86203410285439 0 0 0
459 459 1 0.0 24.34295760004421 27.28118404134126 19.860975611634952 0 0 0
468 468 1 0.0 25.77463933783043 29.76079994617507 19.860891722561202 0 0 0
477 477 1 0.0 30.069554591014708 32.24063998092831 19.860912969750544 0 -1 0
486 486 1 0.0 12.886945738845048 2.4797129394523596 19.86134083594 0 0 0
495 495 1 0.0 14.319132232971022 4.960399377772863 19.861856788045415 0 0 0
504 504 1 0.0 15.75127828479429 7.440804747861508 19.861651764716225 0 0 0
513 513 1 0.0 17.18316580869362 9.920704274995655 19.86099811878441 0 0 0
522 522 1 0.0 18.614796440135642 12.400293617388012 19.86090549298784 0 0 0
531 531 1 0.0 20.04639657890752 14.880015128138739 19.861472395951854 0 0 0
540 540 1 0.0 21.47823387293598 17.360205281564593 19.86174832814047 0 0 0
549 549 1 0.0 22.91038153180602 19.840802071472922 19.861347197836572 0 0 0
558 558 1 0.0 24.342626406410787 22.321388635647672 19.860966332470955 0 0 0
567 567 1 0.0 25.774657070533465 24.801526235379015 19.86113701655606 0 0 0
576 576 1 0.0 27.20635359680224 27.281160052650762 19.861329699922635 0 0 0
585 585 1 0.0 28.63788389446065 29.760698864273863 19.861099325258486 0 0 0
594 594 1 0.0 32.93309533539606 32.240867699271746 19.86114536023944 0 -1 0
603 603 1 0.0 15.75068814433999 2.480040931669754 19.862817056943353 0 0 0
612 612 1 0.0 17.182839829994208 4.960704593994839 19.863615814516677 0 0 0